 &FCI NORB=28,NELEC=12,MS2=0,
  ORBSYM= 1,1,1,1,1,1,1,1,1,1,1,1,1,1,1,1,1,1,1,1,1,1,1,1,1,1,1,1,
  ISYM=1
 &END
 4.1495036089762687e+00    1    1    1    1
 2.7132462185490407e-03    2    1    1    1
 3.8340203796741387e-05    2    1    2    1
 4.4870547957165624e-01    2    2    1    1
-9.3502184411904353e-03    2    2    2    1
 3.5229342901798284e+00    2    2    2    2
-2.5744556980429745e-01    3    1    1    1
 5.6943870038204581e-05    3    1    2    1
 2.2244090769330313e-04    3    1    2    2
 3.1744639478022842e-02    3    1    3    1
-6.5245445528156224e-04    3    2    1    1
-6.4666444619135353e-04    3    2    2    1
 1.5625563598449044e-01    3    2    2    2
-9.1512531537000410e-05    3    2    3    1
 1.6079003310185001e-02    3    2    3    2
 8.6853975335311318e-01    3    3    1    1
 5.5061197088449271e-04    3    3    2    1
 6.8107803418901736e-01    3    3    2    2
 2.7988931339622681e-03    3    3    3    1
-6.3576731865999060e-03    3    3    3    2
 7.7329935955782581e-01    3    3    3    3
 3.2223204100752922e-10    4    1    1    1
 3.1080793842792387e-13    4    1    2    1
 9.0906683396095330e-12    4    1    2    2
-2.6949405202102687e-11    4    1    3    1
-8.5098201244582272e-14    4    1    3    2
 2.7880573153974830e-11    4    1    3    3
 1.6191571712081798e-02    4    1    4    1
-1.5335432283391009e-12    4    2    1    1
-9.5316781005641559e-13    4    2    2    1
 2.7707447109417276e-10    4    2    2    2
-1.5231454470538039e-13    4    2    3    1
 2.2452574692299385e-11    4    2    3    2
 2.0559873159545696e-12    4    2    3    3
 1.5721134413460879e-04    4    2    4    1
 8.3874623063903662e-03    4    2    4    2
-1.6223928989649793e-10    4    3    1    1
-5.7693101473104578e-13    4    3    2    1
 2.7383514872006711e-10    4    3    2    2
 8.9821861312740651e-12    4    3    3    1
-1.8284628477428601e-12    4    3    3    2
 7.7359868052510659e-11    4    3    3    3
 1.4910942782733146e-02    4    3    4    1
-6.7648406460437405e-03    4    3    4    2
 1.0179360711284322e-01    4    3    4    3
 7.5163148950193637e-01    4    4    1    1
 3.5948669987774572e-04    4    4    2    1
 5.8004722824345645e-01    4    4    2    2
-4.2051834074842903e-04    4    4    3    1
-1.7062125649450646e-03    4    4    3    2
 6.1670237507599024e-01    4    4    3    3
-1.6362225834808391e-11    4    4    4    1
-1.5272462287485015e-11    4    4    4    2
-8.3588258471334749e-12    4    4    4    3
 5.7230009084517863e-01    4    4    4    4
 1.6466392337145631e-10    5    1    1    1
 1.5882617071949886e-13    5    1    2    1
 4.6453995602845992e-12    5    1    2    2
-1.3771434035224147e-11    5    1    3    1
-4.3486036155564462e-14    5    1    3    2
 1.4247238779109284e-11    5    1    3    3
-1.1746380811972562e-16    5    1    4    1
-2.1277122528689234e-13    5    1    4    2
-1.3987998993453294e-12    5    1    4    3
 5.1841296461035934e-12    5    1    4    4
 1.6191565054284311e-02    5    1    5    1
-7.8364541036300885e-13    5    2    1    1
-4.8708036349813840e-13    5    2    2    1
 1.4158819102314981e-10    5    2    2    2
-7.7833866131639093e-14    5    2    3    1
 1.1473516762365384e-11    5    2    3    2
 1.0506491277627797e-12    5    2    3    3
 2.1276961337393165e-13    5    2    4    1
-3.9796888290686003e-17    5    2    4    2
 6.0324788111115861e-12    5    2    4    3
 6.1552689488749161e-13    5    2    4    4
 1.5721127450539046e-04    5    2    5    1
 8.3874682736599423e-03    5    2    5    2
-8.2906104219348473e-11    5    3    1    1
-2.9481744582105940e-13    5    3    2    1
 1.3993273096536446e-10    5    3    2    2
 4.5899827018535204e-12    5    3    3    1
-9.3436228896367567e-13    5    3    3    2
 3.9531612171083528e-11    5    3    3    3
 1.3985883734587621e-12    5    3    4    1
-6.0324591496114111e-12    5    3    4    2
-3.6171807489179978e-16    5    3    4    3
 9.2171798889164960e-12    5    3    4    4
 1.4910937143558298e-02    5    3    5    1
-6.7648449396674583e-03    5    3    5    2
 1.0179359873431816e-01    5    3    5    3
-3.2894896570479091e-15    5    4    1    1
-6.0245335358517163e-18    5    4    2    1
-2.2705664157480021e-16    5    4    2    2
 1.0672873927002741e-17    5    4    3    1
-1.0618859160677577e-18    5    4    3    2
-1.4885104763631533e-15    5    4    3    3
-6.6902956131946570e-12    5    4    4    1
-4.1162348581497369e-12    5    4    4    2
-6.6821884681365171e-12    5    4    4    3
-1.3069252414080203e-15    5    4    4    4
-1.3092282335078918e-11    5    4    5    1
-8.0550831321120604e-12    5    4    5    2
-1.3076409550025822e-11    5    4    5    3
 2.3339472260615737e-02    5    4    5    4
 7.5163135491395505e-01    5    5    1    1
 3.5948622820662380e-04    5    5    2    1
 5.8004733560747568e-01    5    5    2    2
-4.2051736651426070e-04    5    5    3    1
-1.7062120754990074e-03    5    5    3    2
 6.1670235046149391e-01    5    5    3    3
 1.0144879729648098e-11    5    5    4    1
 1.2045103433573250e-12    5    5    4    2
 1.8037290345396437e-11    5    5    4    3
 5.2562112104993652e-01    5    5    4    4
-8.3612667415621520e-12    5    5    5    1
-7.8043968840213585e-12    5    5    5    2
-4.2713543541957485e-12    5    5    5    3
-1.3226772161256869e-15    5    5    5    4
 5.7230004029719439e-01    5    5    5    5
 2.2589687723315979e-01    6    1    1    1
 1.0502205229242302e-04    6    1    2    1
 3.1819833280707665e-03    6    1    2    2
-1.9761429267290114e-02    6    1    3    1
-1.0896301539004597e-04    6    1    3    2
 1.6648796378816645e-02    6    1    3    3
 1.7891397219074650e-11    6    1    4    1
-2.8979143886529764e-13    6    1    4    2
-1.5933728885534702e-11    6    1    4    3
 6.7814738420265055e-03    6    1    4    4
 9.1426838381919743e-12    6    1    5    1
-1.4808594964251789e-13    6    1    5    2
-8.1423090364239957e-12    6    1    5    3
-2.2485244664028466e-17    6    1    5    4
 6.7814728801932787e-03    6    1    5    5
 2.5552111909152669e-02    6    1    6    1
 1.9890268195717101e-03    6    2    1    1
-8.2766999744998714e-04    6    2    2    1
 2.4669487776142207e-01    6    2    2    2
-3.5320489255768813e-05    6    2    3    1
 1.6824782533039047e-02    6    2    3    2
 9.8634738317545101e-03    6    2    3    3
-9.9518964248412752e-14    6    2    4    1
 1.8931234261842121e-11    6    2    4    2
 1.7762798216555543e-11    6    2    4    3
 4.6729699260043963e-03    6    2    4    4
-5.0855793639804770e-14    6    2    5    1
 9.6740767673185012e-12    6    2    5    2
 9.0769881377811568e-12    6    2    5    3
-1.7319094720220579e-17    6    2    5    4
 4.6729715764673805e-03    6    2    5    5
 3.9241299484454521e-05    6    2    6    1
 2.8885350307682217e-02    6    2    6    2
-1.3973253440336106e-01    6    3    1    1
-4.9126303756979724e-04    6    3    2    1
 1.5063186679949289e-01    6    3    2    2
 4.5060311239378476e-03    6    3    3    1
 2.3245358714756807e-05    6    3    3    2
 1.1919439224213353e-02    6    3    3    3
-1.5573840743235242e-11    6    3    4    1
 1.3274755280582796e-11    6    3    4    2
-4.6446524164422725e-11    6    3    4    3
-9.5542639784134166e-03    6    3    4    4
-7.9584001114033033e-12    6    3    5    1
 6.7835486921522069e-12    6    3    5    2
-2.3734656859098324e-11    6    3    5    3
 5.4448537654166194e-16    6    3    5    4
-9.5542254974763288e-03    6    3    5    5
 8.6560573126497943e-04    6    3    6    1
 4.2507039980480710e-03    6    3    6    2
 5.3847334451078296e-02    6    3    6    3
 1.8200583434050098e-11    6    4    1    1
-2.8768746110331786e-13    6    4    2    1
-6.6911727834160931e-11    6    4    2    2
-1.0589707699114863e-11    6    4    3    1
 5.4155417264429697e-12    6    4    3    2
-1.2057953088333073e-10    6    4    3    3
-8.4857677755194733e-03    6    4    4    1
-6.3350075950334307e-03    6    4    4    2
-7.6467164380903795e-03    6    4    4    3
 2.3757780434941452e-11    6    4    4    4
 1.0295132832208022e-12    6    4    5    1
 1.5626002966282876e-12    6    4    5    2
 9.3850302106171618e-12    6    4    5    3
 1.3641289241276649e-11    6    4    5    4
-3.1773241556702847e-11    6    4    5    5
 1.6135453243049503e-13    6    4    6    1
 8.5605536513939209e-12    6    4    6    2
-3.7664771459359628e-11    6    4    6    3
 3.9866664823406207e-02    6    4    6    4
 9.3004973231127760e-12    6    5    1    1
-1.4701137852178960e-13    6    5    2    1
-3.4192511207491409e-11    6    5    2    2
-5.4114475689262649e-12    6    5    3    1
 2.7674041604733696e-12    6    5    3    2
-6.1617472322188442e-11    6    5    3    3
-1.0293687130899655e-12    6    5    4    1
-1.5626027734110953e-12    6    5    4    2
-9.3842993933678528e-12    6    5    4    3
-1.6236506940894698e-11    6    5    4    4
-8.4857639165903699e-03    6    5    5    1
-6.3350118757549223e-03    6    5    5    2
-7.6466930435527521e-03    6    5    5    3
 2.6694725906223330e-11    6    5    5    4
 1.2140418955837374e-11    6    5    5    5
 8.2453695265254393e-14    6    5    6    1
 4.3745406155878705e-12    6    5    6    2
-1.9247079967234603e-11    6    5    6    3
-7.5841815457839829e-17    6    5    6    4
 3.9866666525926964e-02    6    5    6    5
 6.6585363311785450e-01    6    6    1    1
-1.3200289827507757e-04    6    6    2    1
 6.0563039365082239e-01    6    6    2    2
-6.7619702888268747e-03    6    6    3    1
 4.7489913250903393e-03    6    6    3    2
 4.9992106999629693e-01    6    6    3    3
 1.8370077732951838e-11    6    6    4    1
 2.3911959780881350e-11    6    6    4    2
 4.9969489057743808e-12    6    6    4    3
 4.8076470504503227e-01    6    6    4    4
 9.3872979976286641e-12    6    6    5    1
 1.2219281903736286e-11    6    6    5    2
 2.5534464342149582e-12    6    6    5    3
-9.8047787646485386e-16    6    6    5    4
 4.8076469621221918e-01    6    6    5    5
-1.0649008894172399e-03    6    6    6    1
 4.0256832976984566e-03    6    6    6    2
-1.4982304176435224e-02    6    6    6    3
-4.9559355320075894e-11    6    6    6    4
-2.5325412577758838e-11    6    6    6    5
 5.1841096349781834e-01    6    6    6    6
-9.4829199387932411e-02    7    1    1    1
-1.2115847321585369e-04    7    1    2    1
-8.7685740849317156e-03    7    1    2    2
 3.8018981015745319e-03    7    1    3    1
 8.0479074399281413e-05    7    1    3    2
-1.8431498354624848e-02    7    1    3    3
-7.8778777914721596e-12    7    1    4    1
-1.5487942538946630e-13    7    1    4    2
 8.5778130685098516e-12    7    1    4    3
-5.5870564918197160e-03    7    1    4    4
-4.0256776218016517e-12    7    1    5    1
-7.9145422438749453e-14    7    1    5    2
 4.3833505467209937e-12    7    1    5    3
-4.3032490683230838e-18    7    1    5    4
-5.5870575852536236e-03    7    1    5    5
-1.7666734000100496e-02    7    1    6    1
-2.6835901553296692e-04    7    1    6    2
-5.4884062056757867e-03    7    1    6    3
 9.3541591464063531e-12    7    1    6    4
 4.7800739114967702e-12    7    1    6    5
 6.7225044296761061e-03    7    1    6    6
 1.8251506342610392e-02    7    1    7    1
 1.0551835012365325e-02    7    2    1    1
-2.7740004696398909e-04    7    2    2    1
 1.2118253841875816e-01    7    2    2    2
 2.4429308651892967e-05    7    2    3    1
 3.3146648560138958e-03    7    2    3    2
 1.8988912864055029e-02    7    2    3    3
 6.4525650192702974e-13    7    2    4    1
 6.6256310027326304e-12    7    2    4    2
 1.5064819145886433e-11    7    2    4    3
 8.0681666251440458e-03    7    2    4    4
 3.2973240256854784e-13    7    2    5    1
 3.3857726376438146e-12    7    2    5    2
 7.6982918622868707e-12    7    2    5    3
-5.2690063935400124e-17    7    2    5    4
 8.0681654591608105e-03    7    2    5    5
 1.1070916681634001e-04    7    2    6    1
 1.7639890598038398e-02    7    2    6    2
 2.0073237908086556e-03    7    2    6    3
-1.0557646561456587e-12    7    2    6    4
-5.3950607239643433e-13    7    2    6    5
-8.8878355761897560e-04    7    2    6    6
-2.1933758638520800e-04    7    2    7    1
 1.8814035563185550e-02    7    2    7    2
-6.2490806884820671e-02    7    3    1    1
-1.5848209031445087e-04    7    3    2    1
-7.7958777781219596e-02    7    3    2    2
-5.2353286538180041e-03    7    3    3    1
 4.3334859037431218e-03    7    3    3    2
-1.1375887838324276e-01    7    3    3    3
 1.5802472472594120e-12    7    3    4    1
 3.1551536648420573e-12    7    3    4    2
 5.2683558441610345e-13    7    3    4    3
-4.8172200580910353e-02    7    3    4    4
 8.0752066587486373e-13    7    3    5    1
 1.6123192301236329e-12    7    3    5    2
 2.6915747560640441e-13    7    3    5    3
 9.7833260625713176e-17    7    3    5    4
-4.8172203745660044e-02    7    3    5    5
-7.5235858302062338e-03    7    3    6    1
-2.9123204019515020e-03    7    3    6    2
-2.3917927218766691e-02    7    3    6    3
 3.5542385601970591e-11    7    3    6    4
 1.8162539489959873e-11    7    3    6    5
 2.5401629654041974e-03    7    3    6    6
 1.1617859407917664e-02    7    3    7    1
-7.4713407823549880e-03    7    3    7    2
 5.4242581527734375e-02    7    3    7    3
-8.8694366369730482e-11    7    4    1    1
-1.8389419059791070e-13    7    4    2    1
 3.4898243188023153e-11    7    4    2    2
 7.0317477938921466e-12    7    4    3    1
 4.7163229834785709e-12    7    4    3    2
-5.8143083560189857e-12    7    4    3    3
 3.3549770512435019e-03    7    4    4    1
-2.4547423252091844e-03    7    4    4    2
 9.7386148752742398e-03    7    4    4    3
-2.1746994008211108e-11    7    4    4    4
 1.9577688401514088e-13    7    4    5    1
-4.9901665661927175e-14    7    4    5    2
 5.8254910500449164e-12    7    4    5    3
-1.1928520224687876e-12    7    4    5    4
-1.7188953876631215e-11    7    4    5    5
 4.1641845046354655e-12    7    4    6    1
 1.5983926813758033e-12    7    4    6    2
 2.1348560834656631e-11    7    4    6    3
-5.1359751788549310e-03    7    4    6    4
 6.5155957190043546e-13    7    4    6    5
-3.5966556851755394e-11    7    4    6    6
-1.0287085023716090e-11    7    4    7    1
-5.9463194578461112e-12    7    4    7    2
-1.1785422918562786e-11    7    4    7    3
 2.2169795695008175e-02    7    4    7    4
-4.5323852240288807e-11    7    5    1    1
-9.3971899443459857e-14    7    5    2    1
 1.7833308200344706e-11    7    5    2    2
 3.5932931462983507e-12    7    5    3    1
 2.4100968329895588e-12    7    5    3    2
-2.9713160428592632e-12    7    5    3    3
-1.9583883489463115e-13    7    5    4    1
 4.9880951391646982e-14    7    5    4    2
-5.8254843665801472e-12    7    5    4    3
-8.7838335111221515e-12    7    5    4    4
 3.3549752728235646e-03    7    5    5    1
-2.4547447984662176e-03    7    5    5    2
 9.7386147651841275e-03    7    5    5    3
-2.3342847977496422e-12    7    5    5    4
-1.1112993254842540e-11    7    5    5    5
 2.1279376014212847e-12    7    5    6    1
 8.1679536460765586e-13    7    5    6    2
 1.0909333495180588e-11    7    5    6    3
-6.5100869355060537e-13    7    5    6    4
-5.1359591015392395e-03    7    5    6    5
-1.8379330824484065e-11    7    5    6    6
-5.2568041331508576e-12    7    5    7    1
-3.0386396645604531e-12    7    5    7    2
-6.0224510623754292e-12    7    5    7    3
-2.2003327399645271e-17    7    5    7    4
 2.2169797406167452e-02    7    5    7    5
-3.0919901073913453e-01    7    6    1    1
-1.0439033725160830e-03    7    6    2    1
 2.1212929872643393e-01    7    6    2    2
 6.0509941936565982e-03    7    6    3    1
 6.1009410849141099e-03    7    6    3    2
-7.0417807872211718e-02    7    6    3    3
-7.8614650104564450e-12    7    6    4    1
 1.5332168916346432e-11    7    6    4    2
 5.0938135183579841e-11    7    6    4    3
-6.0389788474612231e-02    7    6    4    4
-4.0172976860907998e-12    7    6    5    1
 7.8349078072618733e-12    7    6    5    2
 2.6029941757127915e-11    7    6    5    3
 1.1244656135087467e-15    7    6    5    4
-6.0389718583258596e-02    7    6    5    5
 3.1970694993978580e-03    7    6    6    1
 5.7097518883135554e-04    7    6    6    2
 8.7251592401288020e-02    7    6    6    3
-4.8125144542977569e-11    7    6    6    4
-2.4592382284304275e-11    7    6    6    5
-3.8527811159859253e-02    7    6    6    6
-1.0876484762199077e-02    7    6    7    1
-1.1937601660524738e-02    7    6    7    2
-1.0164635037207055e-02    7    6    7    3
 6.6361741942301789e-11    7    6    7    4
 3.3911563392468585e-11    7    6    7    5
 2.2170168373854066e-01    7    6    7    6
 6.8136520369018161e-01    7    7    1    1
-1.6232091195548617e-04    7    7    2    1
 6.5690294389023929e-01    7    7    2    2
-4.4896837813153453e-03    7    7    3    1
 4.3384916735589637e-03    7    7    3    2
 5.2937142650731839e-01    7    7    3    3
 1.1938938925652760e-11    7    7    4    1
 1.3378284213199710e-11    7    7    4    2
 2.7487318852671504e-11    7    7    4    3
 4.8735624828595198e-01    7    7    4    4
 6.1009146892772125e-12    7    7    5    1
 6.8364578757098483e-12    7    7    5    2
 1.4046285381071736e-11    7    7    5    3
-9.0402821747250361e-16    7    7    5    4
 4.8735624631450769e-01    7    7    5    5
 9.2512550101624710e-04    7    7    6    1
 2.9022213972065701e-03    7    7    6    2
-1.4650551246414201e-03    7    7    6    3
-1.4654693301404078e-11    7    7    6    4
-7.4887358104350323e-12    7    7    6    5
 5.3087327100894222e-01    7    7    6    6
 3.1599826539373153e-03    7    7    7    1
-3.0117460248385228e-03    7    7    7    2
-1.4775727582777252e-02    7    7    7    3
-2.0291667357154236e-11    7    7    7    4
-1.0369299201181706e-11    7    7    7    5
-1.1499873338724457e-02    7    7    7    6
 5.6154997520175476e-01    7    7    7    7
-4.7532594756036761e-11    8    1    1    1
-1.7223611353491908e-13    8    1    2    1
-6.5871517489253894e-12    8    1    2    2
 3.8569228356591826e-13    8    1    3    1
 1.0032057892681835e-14    8    1    3    2
-1.3072534408210004e-11    8    1    3    3
-3.3538556310665255e-10    8    1    4    1
 8.1165764376459355e-13    8    1    4    2
-3.1649248759843855e-10    8    1    4    3
-4.4794127349669356e-12    8    1    4    4
-1.9216650647909873e-02    8    1    5    1
 3.0419284335256733e-05    8    1    5    2
-1.8319424403537690e-02    8    1    5    3
 1.4889077158744551e-11    8    1    5    4
 1.1371302110546392e-11    8    1    5    5
 2.7709909201710515e-12    8    1    6    1
-2.0024783986774121e-13    8    1    6    2
 8.4671618895904723e-12    8    1    6    3
 1.6238879874922485e-10    8    1    6    4
 9.4369319633666130e-03    8    1    6    5
-8.6827139726176162e-12    8    1    6    6
-1.4090004150523676e-12    8    1    7    1
-5.4562533842319506e-13    8    1    7    2
-1.2232640212825078e-12    8    1    7    3
-7.4635256967444868e-11    8    1    7    4
-4.3230952759717028e-03    8    1    7    5
 4.1265445687808887e-12    8    1    7    6
-5.7546535209437938e-12    8    1    7    7
 2.2865178317290669e-02    8    1    8    1
 1.6611093159488700e-12    8    2    1    1
-2.1031791797612479e-13    8    2    2    1
 8.5105165079156426e-11    8    2    2    2
-5.6137534416138021e-14    8    2    3    1
 4.5384653647290404e-12    8    2    3    2
 6.7461734531459235e-12    8    2    3    3
-6.0912650359640804e-12    8    2    4    1
 2.0833796338352696e-10    8    2    4    2
-1.8928546592126099e-10    8    2    4    3
 2.6468086067079874e-12    8    2    4    4
-3.7667277747299358e-04    8    2    5    1
 1.2739363557263180e-02    8    2    5    2
-1.2089002987312355e-02    8    2    5    3
-1.0697235352061906e-11    8    2    5    4
-8.7497781898509415e-12    8    2    5    5
 2.0004167132432418e-13    8    2    6    1
 1.3239253688712659e-12    8    2    6    2
 1.0135042814937264e-11    8    2    6    3
-1.3605935641727062e-10    8    2    6    4
-8.5252363593906824e-03    8    2    6    5
 1.3099335534897344e-11    8    2    6    6
-4.5183338967265712e-13    8    2    7    1
 2.6829498092458754e-12    8    2    7    2
-1.8315120076545437e-12    8    2    7    3
-6.8388962668822692e-11    8    2    7    4
-4.2669889173015960e-03    8    2    7    5
 5.7210131870567171e-12    8    2    7    6
 5.8391754095605753e-12    8    2    7    7
 7.5103711690864561e-04    8    2    8    1
 1.9455458767307726e-02    8    2    8    2
-4.8716499938348604e-11    8    3    1    1
-2.4393231974136448e-13    8    3    2    1
-1.8212690543521685e-11    8    3    2    2
-3.1869092032495864e-12    8    3    3    1
 2.2218505556463718e-12    8    3    3    2
-6.2750424407102460e-11    8    3    3    3
-2.0067837258021208e-10    8    3    4    1
-1.0848847117736431e-10    8    3    4    2
-3.1062008905786149e-10    8    3    4    3
-2.9243575391940453e-11    8    3    4    4
-1.1694484325145480e-02    8    3    5    1
-6.5351726481967798e-03    8    3    5    2
-1.7416135906851385e-02    8    3    5    3
 5.1470340047017495e-11    8    3    5    4
 3.3591008019649576e-11    8    3    5    5
 3.2034240843767046e-12    8    3    6    1
 4.2137078983460893e-12    8    3    6    2
 1.8871455495124315e-12    8    3    6    3
 5.8320029144063064e-10    8    3    6    4
 3.5713288063606727e-02    8    3    6    5
-4.7573337833929900e-11    8    3    6    6
-4.6668454725047284e-13    8    3    7    1
-1.0695284328051437e-12    8    3    7    2
 8.8693607230941800e-12    8    3    7    3
-4.4445763162093805e-11    8    3    7    4
-2.9474641380850953e-03    8    3    7    5
 1.1992076593419089e-11    8    3    7    6
-3.1424211642561397e-11    8    3    7    7
 1.2871851514669090e-02    8    3    8    1
-8.2853311761940211e-03    8    3    8    2
 4.2373536773012158e-02    8    3    8    3
-5.7321533458473736e-09    8    4    1    1
-1.7468687285470250e-11    8    4    2    1
 3.4912315271446157e-09    8    4    2    2
 5.0393464604439585e-11    8    4    3    1
 9.4027206058996215e-12    8    4    3    2
-1.1248190176283398e-09    8    4    3    3
 3.7047845104139824e-13    8    4    4    1
-1.5271139722085544e-12    8    4    4    2
-3.0366527339899871e-12    8    4    4    3
-1.1216190527250777e-09    8    4    4    4
 1.6428889269475016e-11    8    4    5    1
-1.0205707066922672e-11    8    4    5    2
 8.8378146048632726e-11    8    4    5    3
-4.3472935865771509e-03    8    4    5    4
-9.7121454389436525e-10    8    4    5    5
-5.9407612490641401e-11    8    4    6    1
 6.3282462260704129e-11    8    4    6    2
 1.3514136642393992e-09    8    4    6    3
 3.3330401959444645e-12    8    4    6    4
-8.4280390463641219e-12    8    4    6    5
-5.7300978672605032e-10    8    4    6    6
-2.3915155088468599e-11    8    4    7    1
-2.5064711037950769e-11    8    4    7    2
-9.2174160913757860e-11    8    4    7    3
 1.7884550924882481e-12    8    4    7    4
 2.4136013782710241e-11    8    4    7    5
 2.3931462134354875e-09    8    4    7    6
-3.8070378398452800e-10    8    4    7    7
-2.0512101015019047e-11    8    4    8    1
-1.6976976993732258e-11    8    4    8    2
-1.3119174210789513e-11    8    4    8    3
 1.6740345423091121e-02    8    4    8    4
-3.3750888714910204e-01    8    5    1    1
-1.0587830102647719e-03    8    5    2    1
 2.1931150710362862e-01    8    5    2    2
 2.9515081951383823e-03    8    5    3    1
 6.5617241440894380e-04    8    5    3    2
-6.3642783986943965e-02    8    5    3    3
-1.8556389749026522e-12    8    5    4    1
 4.8271969569385074e-12    8    5    4    2
 1.2229748016605581e-10    8    5    4    3
-5.5801028708381141e-02    8    5    4    4
 1.0942372196677047e-11    8    5    5    1
-5.9479479508935982e-12    8    5    5    2
 1.2817417609469405e-10    8    5    5    3
-7.5200389503784653e-11    8    5    5    4
-6.4495535792778946e-02    8    5    5    5
-3.1911583480076174e-03    8    5    6    1
 3.8242768781186118e-03    8    5    6    2
 8.3326677856355225e-02    8    5    6    3
-3.5146482360788273e-11    8    5    6    4
-2.1156501013245066e-11    8    5    6    5
-3.1515053424018606e-02    8    5    6    6
-1.8400262432717431e-03    8    5    7    1
-1.7235930591979886e-03    8    5    7    2
-6.7127629400202237e-03    8    5    7    3
 5.2882294394572030e-11    8    5    7    4
 4.6142499341359367e-11    8    5    7    5
 1.4828099767189909e-01    8    5    7    6
-1.8775348195553144e-02    8    5    7    7
-1.6505935994861350e-11    8    5    8    1
-1.3364979550924441e-11    8    5    8    2
-3.8341067939491919e-12    8    5    8    3
 2.5586276195584121e-09    8    5    8    4
 1.7303603296706443e-01    8    5    8    5
 6.3238570059417981e-11    8    6    1    1
 2.2335767361936911e-13    8    6    2    1
-5.1059538044033100e-11    8    6    2    2
 1.6147584197767809e-12    8    6    3    1
 2.3767911937313942e-12    8    6    3    2
 6.1978325356602016e-12    8    6    3    3
 1.7231500252539775e-10    8    6    4    1
-1.4186369374679884e-10    8    6    4    2
 9.9339723856706490e-10    8    6    4    3
 8.2733563680116427e-12    8    6    4    4
 1.0427669773874538e-02    8    6    5    1
-8.7530963869733337e-03    8    6    5    2
 6.2910227358366100e-02    8    6    5    3
-6.8832316894347073e-12    8    6    5    4
 5.5469814461633858e-14    8    6    5    5
-3.7564324179621993e-12    8    6    6    1
 4.6838348223521123e-12    8    6    6    2
-5.8310563258183696e-11    8    6    6    3
-1.1197266015637799e-11    8    6    6    4
-2.8976436322462640e-04    8    6    6    5
-3.6929020231747158e-12    8    6    6    6
 3.7591855869677583e-12    8    6    7    1
 1.2910284035579359e-12    8    6    7    2
 1.5865315196804927e-11    8    6    7    3
 4.7813536765528605e-10    8    6    7    4
 3.0429664823801644e-02    8    6    7    5
-5.6395638009932568e-11    8    6    7    6
 5.5694870611137009e-12    8    6    7    7
-1.3259600100479574e-02    8    6    8    1
-1.4510159097310961e-02    8    6    8    2
-3.2364287530296499e-03    8    6    8    3
 6.9476769288453924e-11    8    6    8    4
 3.1973934384837498e-11    8    6    8    5
 7.0247507113991983e-02    8    6    8    6
-3.9823800614058046e-11    8    7    1    1
-2.1686808560768434e-13    8    7    2    1
 3.0140539195522465e-11    8    7    2    2
-4.6946855440218675e-13    8    7    3    1
 9.7621350347228867e-13    8    7    3    2
-1.1948455889793979e-11    8    7    3    3
-7.8559941339480258e-11    8    7    4    1
-7.7212927388799872e-11    8    7    4    2
-3.4266740198912600e-11    8    7    4    3
-7.8483816179317347e-12    8    7    4    4
-4.8772751987571578e-03    8    7    5    1
-5.0336638418486774e-03    8    7    5    2
-1.8523312507410798e-03    8    7    5    3
 2.3994963834436148e-11    8    7    5    4
 1.9329108809736961e-11    8    7    5    5
 2.0081739212726213e-12    8    7    6    1
 3.5425631092353354e-12    8    7    6    2
 1.2177994941543740e-11    8    7    6    3
 4.9751079391499287e-10    8    7    6    4
 3.2268130642297090e-02    8    7    6    5
-3.5025327148139141e-11    8    7    6    6
-1.6996412746757375e-12    8    7    7    1
-1.8561716403907176e-13    8    7    7    2
-1.0255060330999035e-11    8    7    7    3
-7.3740299870251707e-12    8    7    7    4
 2.7830496060097517e-04    8    7    7    5
 2.3499182584512791e-11    8    7    7    6
-1.3250806979511114e-11    8    7    7    7
 5.5822478716476926e-03    8    7    8    1
-7.3578489822886690e-03    8    7    8    2
 2.1061166893015355e-02    8    7    8    3
 5.0130686946315411e-13    8    7    8    4
 2.4867576722026050e-11    8    7    8    5
 6.3120025350656157e-03    8    7    8    6
 3.5225700631895299e-02    8    7    8    7
 7.5379156749914178e-01    8    8    1    1
-1.6525268000317368e-05    8    8    2    1
 7.0852699196635316e-01    8    8    2    2
-3.3122845077557576e-03    8    8    3    1
 1.1425549747157238e-03    8    8    3    2
 5.9304393108914666e-01    8    8    3    3
 8.6067418909807809e-12    8    8    4    1
 5.3669713372831463e-12    8    8    4    2
 3.5449630876466047e-11    8    8    4    3
 5.2265069023179644e-01    8    8    4    4
-3.0941718073808019e-12    8    8    5    1
-6.4141142052896233e-12    8    8    5    2
 2.2865077335521717e-11    8    8    5    3
 6.7291694553536063e-10    8    8    5    4
 5.6397687267013885e-01    8    8    5    5
 5.9927169255106875e-03    8    8    6    1
 6.5021478582224859e-03    8    8    6    2
 6.8862894227791705e-03    8    8    6    3
-8.8848890157362072e-12    8    8    6    4
 1.5943074485068178e-11    8    8    6    5
 5.1290048695893908e-01    8    8    6    6
-3.5092569498480176e-03    8    8    7    1
 5.1798410083567087e-03    8    8    7    2
-3.3440398941144048e-02    8    8    7    3
-1.1399013430923095e-11    8    8    7    4
 3.5338670518038778e-12    8    8    7    5
-1.8056324563942877e-02    8    8    7    6
 5.2366183038739555e-01    8    8    7    7
 5.8897709803884423e-12    8    8    8    1
-1.1014283656153127e-11    8    8    8    2
 2.5958113349383561e-11    8    8    8    3
-4.4411858919080802e-10    8    8    8    4
-2.1681745620229006e-02    8    8    8    5
 1.5190734422333239e-11    8    8    8    6
 2.8433704535877943e-11    8    8    8    7
 5.9664293373540800e-01    8    8    8    8
-9.3017100801856671e-11    9    1    1    1
-3.3704993745251368e-13    9    1    2    1
-1.2890386081673398e-11    9    1    2    2
 7.5477806553685673e-13    9    1    3    1
 1.9631790823080773e-14    9    1    3    2
-2.5581729514170163e-11    9    1    3    3
-1.9216656286023200e-02    9    1    4    1
 3.0419134094492615e-05    9    1    4    2
-1.8319428350697029e-02    9    1    4    3
 2.2252635793028248e-11    9    1    4    4
 3.3538573254118934e-10    9    1    5    1
-8.1166144665103855e-13    9    1    5    2
 3.1649264491419687e-10    9    1    5    3