 &FCI NORB=16,NELEC=10,MS2=0,
  ORBSYM= 1,1,1,1,1,1,1,1,1,1,1,1,1,1,1,1,
  ISYM=1
 &END
 5.3735420136262171e+00    1    1    1    1
-4.9146262210482039e-01    2    1    1    1
 7.7666237861865314e-02    2    1    2    1
 1.2750577488696466e+00    2    2    1    1
-1.3624253513094568e-02    2    2    2    1
 9.4256496804149714e-01    2    2    2    2
 6.3337849952640883e-11    3    1    1    1
-4.9088129138708015e-12    3    1    2    1
 1.1939278146550115e-11    3    1    2    2
 3.7760274453805219e-02    3    1    3    1
-6.2421032808938930e-12    3    2    1    1
 5.5291129157052390e-12    3    2    2    1
 3.4689561813999894e-11    3    2    2    2
 3.7949244884107190e-02    3    2    3    1
 1.6564488055887749e-01    3    2    3    2
 1.2230576884071107e+00    3    3    1    1
-1.2405667370400912e-02    3    3    2    1
 8.6047499649190262e-01    3    3    2    2
-9.2441582351283103e-12    3    3    3    1
-4.0746050023219066e-11    3    3    3    2
 8.9738691271984494e-01    3    3    3    3
-1.5899268032262741e-11    4    1    1    1
 1.2353244986072914e-12    4    1    2    1
-2.9920236286834814e-12    4    1    2    2
-2.0224895436072339e-16    4    1    3    1
 4.3826167657766335e-09    4    1    3    2
-3.1760191084062336e-13    4    1    3    3
 3.7760274453800709e-02    4    1    4    1
 1.5756184634884891e-12    4    2    1    1
-1.3819118555836672e-12    4    2    2    1
-8.6752217974971992e-12    4    2    2    2
-4.3826179710224529e-09    4    2    3    1
-5.4467249477774169e-15    4    2    3    2
 1.7758586092567063e-12    4    2    3    3
 3.7949244884100036e-02    4    2    4    1
 1.6564488055882809e-01    4    2    4    2
-2.5301854276594740e-15    4    3    1    1
-4.8438996620171182e-18    4    3    2    1
-3.3253450698364833e-15    4    3    2    2
 1.3109507658279502e-12    4    3    3    1
 4.1984951017071056e-12    4    3    3    2
-1.0796280926502396e-15    4    3    3    3
-5.2391452720601941e-12    4    3    4    1
-1.6781098087932957e-11    4    3    4    2
 4.4553945823032966e-02    4    3    4    3
 1.2230576884070548e+00    4    4    1    1
-1.2405667370400025e-02    4    4    2    1
 8.6047499649186154e-01    4    4    2    2
 1.2481614558751188e-12    4    4    3    1
-7.0872686703863113e-12    4    4    3    2
 8.0827902107375671e-01    4    4    3    3
 2.3076542738615650e-12    4    4    4    1
 1.0195944252759622e-11    4    4    4    2
-1.0585753641223879e-15    4    4    4    3
 8.9738691271980053e-01    4    4    4    4
 9.8533044611509815e-02    5    1    1    1
-7.1236027703417207e-03    5    1    2    1
 1.9766150549973761e-02    5    1    2    2
 8.4353167538781543e-13    5    1    3    1
-2.5177051581388556e-12    5    1    3    2
 1.8561822896907296e-03    5    1    3    3
-2.1325998722860308e-13    5    1    4    1
 6.2895184057369381e-13    5    1    4    2
 1.2106593698365389e-17    5    1    4    3
 1.8561822896908061e-03    5    1    4    4
 2.7902803030308582e-02    5    1    5    1
 1.7915012939440135e-03    5    2    1    1
 8.3818266039822256e-03    5    2    2    1
 6.4409952835815243e-02    5    2    2    2
-2.2876893876065912e-12    5    2    3    1
-1.4169533933474337e-11    5    2    3    2
-1.0436220358049626e-02    5    2    3    3
 5.7141792476227293e-13    5    2    4    1
 3.5426060966792501e-12    5    2    4    2
 7.1017198636754747e-16    5    2    4    3
-1.0436220358041254e-02    5    2    4    4
 2.3855886653654242e-02    5    2    5    1
 1.0220447515545333e-01    5    2    5    2
-7.6118957466381456e-13    5    3    1    1
-2.2730295836599851e-12    5    3    2    1
-1.6633953059850132e-11    5    3    2    2
-7.9056450177142183e-03    5    3    3    1
-2.7046993577706298e-02    5    3    3    2
 8.7568321899200700e-12    5    3    3    3
-1.0695134653570705e-09    5    3    4    1
-6.9108225815353434e-10    5    3    4    2
-9.3437769593158626e-13    5    3    4    3
 1.2710568115236753e-12    5    3    4    4
-3.2856410161819710e-12    5    3    5    1
-8.4009085021573282e-12    5    3    5    2
 4.1946623600486892e-02    5    3    5    3
 1.7446181389241890e-13    5    4    1    1
 5.6857358453192381e-13    5    4    2    1
 4.1534109029765855e-12    5    4    2    2
 1.0695138963715118e-09    5    4    3    1
 6.9108568864868649e-10    5    4    3    2
-3.2448504510719904e-13    5    4    3    3
-7.9056450177112329e-03    5    4    4    1
-2.7046993577686737e-02    5    4    4    2
 3.7320006557177925e-12    5    4    4    3
-2.1984470492894293e-12    5    4    4    4
 8.2212466517610134e-13    5    4    5    1
 2.0999148138608111e-12    5    4    5    2
-5.3749762927293372e-16    5    4    5    3
 4.1946623600479731e-02    5    4    5    4
 1.0367543886993589e+00    5    5    1    1
-1.3473282003020223e-02    5    5    2    1
 7.2512605305086741e-01    5    5    2    2
 1.5154539850563142e-12    5    5    3    1
 7.9867462040492841e-13    5    5    3    2
 7.3060924375494085e-01    5    5    3    3
-3.8317769741414488e-13    5    5    4    1
-2.0033135700666129e-13    5    5    4    2
-9.2050097239026875e-16    5    5    4    3
 7.3060924375492298e-01    5    5    4    4
-1.3840973583572501e-02    5    5    5    1
-7.9048004892781951e-02    5    5    5    2
 1.0951170764658360e-11    5    5    5    3
-2.7396127432855204e-12    5    5    5    4
 8.4295708251836599e-01    5    5    5    5
 1.8361696076974926e-01    6    1    1    1
-1.7860064793730038e-02    6    1    2    1
 2.7000999998455424e-02    6    1    2    2
 1.8749326505433578e-12    6    1    3    1
-3.4850367908204383e-12    6    1    3    2
 4.3768708344495448e-03    6    1    3    3
-4.8014241869242178e-13    6    1    4    1
 8.6411338414072641e-13    6    1    4    2
 7.7564394515242972e-16    6    1    4    3
 4.3768708344551046e-03    6    1    4    4
 3.6835946269472633e-02    6    1    5    1
 2.8562315067682264e-02    6    1    5    2
-3.8939984475359017e-12    6    1    5    3
 9.7559751805376958e-13    6    1    5    4
-1.4634945847661786e-02    6    1    5    5
 4.9640953421901467e-02    6    1    6    1
-5.4022038201205838e-02    6    2    1    1
 9.6332360892459872e-03    6    2    2    1
 2.2915111595504505e-02    6    2    2    2
-3.0062781391661325e-12    6    2    3    1
-1.1411354503838555e-11    6    2    3    2
-2.9493583688839187e-02    6    2    3    3
 7.4889615849576595e-13    6    2    4    1
 2.8528848281357413e-12    6    2    4    2
 1.6189579819758683e-14    6    2    4    3
-2.9493583688715266e-02    6    2    4    4
 1.9634128581200748e-02    6    2    5    1
 6.7817407665885288e-02    6    2    5    2
-5.6029346890286816e-12    6    2    5    3
 1.4066434424191105e-12    6    2    5    4
-4.6027652314059406e-02    6    2    5    5
 2.3181518519324949e-02    6    2    6    1
 5.4869231270938776e-02    6    2    6    2
 2.5094850154667814e-12    6    3    1    1
-2.7341573967723851e-12    6    3    2    1
-1.2663617056667894e-11    6    3    2    2
-1.1018201270429937e-02    6    3    3    1
-2.8171838809655222e-02    6    3    3    2
 1.0027004287583126e-11    6    3    3    3
-4.6662753815369759e-10    6    3    4    1
 3.6581483634073261e-09    6    3    4    2
-9.5652476686954298e-13    6    3    4    3
 2.3778164421889666e-12    6    3    4    4
-2.7031268266209244e-12    6    3    5    1
-5.4663856769754156e-12    6    3    5    2
 2.6416267554984333e-02    6    3    5    3
-2.4871829702768150e-09    6    3    5    4
 4.6818454830064468e-12    6    3    5    5
-3.1212390290780929e-12    6    3    6    1
-3.2865809160973548e-12    6    3    6    2
 2.8220770391094552e-02    6    3    6    3
-7.3507785088784753e-13    6    4    1    1
 6.8724481075471490e-13    6    4    2    1
 3.1359875107198189e-12    6    4    2    2
 4.6663973975817875e-10    6    4    3    1
-3.6580744173699691e-09    6    4    3    2
-6.3182024915991374e-13    6    4    3    3
-1.1018201270383023e-02    6    4    4    1
-2.8171838809373493e-02    6    4    4    2
 3.8163976677029891e-12    6    4    4    3
-2.5487895639048308e-12    6    4    4    4
 6.7770950106636865e-13    6    4    5    1
 1.3797082566381947e-12    6    4    5    2
 2.4871656647091358e-09    6    4    5    3
 2.6416267554916450e-02    6    4    5    4
-1.2156049564450446e-12    6    4    5    5
 7.8429152220798559e-13    6    4    6    1
 8.3503983630956053e-13    6    4    6    2
-1.2653664097282043e-14    6    4    6    3
 2.8220770390997470e-02    6    4    6    4
 5.2493824186931271e-01    6    5    1    1
-1.3692632082783767e-02    6    5    2    1
 2.4667966503341651e-01    6    5    2    2
 1.6347209668535229e-12    6    5    3    1
-2.9898517268888342e-12    6    5    3    2
 2.2203605736038712e-01    6    5    3    3
-4.1000196122255418e-13    6    5    4    1
 7.6345826730074278e-13    6    5    4    2
-3.9212394829353411e-15    6    5    4    3
 2.2203605736034907e-01    6    5    4    4
-4.4785853571084628e-03    6    5    5    1
 1.2022039172618230e-02    6    5    5    2
-2.0650574825032522e-12    6    5    5    3
 5.0175301796288745e-13    6    5    5    4
 1.2594388992725494e-01    6    5    5    5
-2.8416364818836214e-03    6    5    6    1
-2.0275343603752306e-02    6    5    6    2
 1.7701990216750311e-12    6    5    6    3
-4.6304749985353077e-13    6    5    6    4
 2.3652523421700922e-01    6    5    6    5
 1.0718922029699827e+00    6    6    1    1
-2.0718086310822077e-02    6    6    2    1
 6.7239580686192912e-01    6    6    2    2
 2.6293101730820302e-12    6    6    3    1
 2.7553234302882141e-12    6    6    3    2
 6.8755125861977817e-01    6    6    3    3
-6.5751194308482845e-13    6    6    4    1
-6.7302581474930403e-13    6    6    4    2
-5.7693711904791311e-15    6    6    4    3
 6.8755125861972433e-01    6    6    4    4
-1.4076786546433058e-02    6    6    5    1
-7.6548904466272175e-02    6    6    5    2
 1.0247970668610354e-11    6    6    5    3
-2.5703429394422631e-12    6    6    5    4
 8.1230021700536503e-01    6    6    5    5
-1.4420206346808984e-02    6    6    6    1
-4.5212276226452575e-02    6    6    6    2
 4.0927255929466878e-12    6    6    6    3
-1.0813461254246811e-12    6    6    6    4
 7.1595382935665433e-02    6    6    6    5
 8.5033486250054946e-01    6    6    6    6
-7.7622215767076666e-11    7    1    1    1
 5.8290928180241756e-12    7    1    2    1
-1.4166010908059352e-11    7    1    2    2
-4.5539371356042031e-02    7    1    3    1
-4.2607511872728231e-02    7    1    3    2
 9.3653963238080795e-12    7    1    3    3
 4.9653446777563342e-06    7    1    4    1
 4.6523725431739473e-06    7    1    4    2
-1.4806415476622308e-12    7    1    4    3
-2.5507193882934693e-12    7    1    4    4
-3.8805461934283302e-13    7    1    5    1
 3.0498594866250459e-12    7    1    5    2
 8.7192874390413771e-03    7    1    5    3
-9.5117550383774424e-07    7    1    5    4
-2.9053265120652945e-12    7    1    5    5
-1.4379685731484046e-12    7    1    6    1
 3.8498516156039301e-12    7    1    6    2
 1.2212084778059807e-02    7    1    6    3
-1.3314835777893645e-06    7    1    6    4
-2.7063158178314793e-12    7    1    6    5
-4.2931801303670364e-12    7    1    6    6
 5.5092244191674078e-02    7    1    7    1
 4.0513124827599815e-12    7    2    1    1
-3.7715465957318067e-12    7    2    2    1
-1.2300047350937907e-11    7    2    2    2
-2.3989706695230286e-02    7    2    3    1
-5.2839837266656406e-02    7    2    3    2
 1.2856128409952824e-11    7    2    3    3
 2.6231585281258022e-06    7    2    4    1
 5.8167829760740248e-06    7    2    4    2
-1.3179753082539215e-12    7    2    4    3
 9.5730729860732526e-13    7    2    4    4
 1.7993899202792599e-12    7    2    5    1
 3.2973376478048456e-12    7    2    5    2
 5.7158545129374957e-03    7    2    5    3
-6.1058546800683951e-07    7    2    5    4
 5.9706619664980333e-13    7    2    5    5
 2.5154655984130135e-12    7    2    6    1
 5.4322909642384758e-12    7    2    6    2
 1.4308761677474271e-02    7    2    6    3
-1.5576007925300650e-06    7    2    6    4
-8.2331337985006162e-13    7    2    6    5
 7.6407391498546633e-13    7    2    6    6
 2.6993369464541415e-02    7    2    7    1
 4.7373849174708056e-02    7    2    7    2
-5.8877450635308382e-01    7    3    1    1
 1.4922533507604833e-02    7    3    2    1
-2.3836745615158844e-01    7    3    2    2
 5.2534856384719332e-12    7    3    3    1
 1.2685588968589372e-11    7    3    3    2
-2.4338023053987831e-01    7    3    3    3
 4.3532985255521750e-13    7    3    4    1
-6.0869759833585049e-13    7    3    4    2
 1.4624986175461744e-06    7    3    4    3
-2.1672645455163475e-01    7    3    4    4
-3.6156541615889296e-03    7    3    5    1
-2.8965180734436004e-03    7    3    5    2
-6.8967265463118315e-13    7    3    5    3
-1.4920741997689209e-13    7    3    5    4
-1.6767389546675943e-01    7    3    5    5
-6.6052018138160560e-03    7    3    6    1
 1.4886129498101851e-02    7    3    6    2
-4.6185113267329404e-12    7    3    6    3
 2.3254025524599942e-13    7    3    6    4
-1.3134129990694721e-01    7    3    6    5
-1.7017128459534850e-01    7    3    6    6
-5.0823445255121643e-12    7    3    7    1
-1.1423901161339040e-11    7    3    7    2
 1.8324323014645433e-01    7    3    7    3
 6.4273740867732641e-05    7    4    1    1
-1.6245928457528222e-06    7    4    2    1
 2.6073265085378205e-05    7    4    2    2
-8.1796213585300969e-13    7    4    3    1
-1.2531911463553224e-12    7    4    3    2
 2.3669627670779257e-05    7    4    3    3
 3.1874551689806009e-12    7    4    4    1
 2.1576396756093069e-12    7    4    4    2
-1.3326887994112389e-02    7    4    4    3
 2.6594624904150469e-05    7    4    4    4
 4.0198148558096247e-07    7    4    5    1
 3.6058838549873326e-07    7    4    5    2
 1.6916724925719661e-13    7    4    5    3
 8.4031395922023091e-14    7    4    5    4
 1.8278766353135160e-05    7    4    5    5
 7.2956124053723073e-07    7    4    6    1
-1.6011390340527044e-06    7    4    6    2
 4.4051076364160330e-13    7    4    6    3
-1.5063013346871803e-12    7    4    6    4
 1.4354906946684283e-05    7    4    6    5
 1.8548030336880478e-05    7    4    6    6
 9.1852622976799907e-13    7    4    7    1
 9.4051917533535595e-13    7    4    7    2
-1.7857081022939252e-05    7    4    7    3
 1.9734014288610841e-02    7    4    7    4
 1.0343698281682385e-11    7    5    1    1
 1.0523923154101483e-12    7    5    2    1
 6.7285769565716412e-12    7    5    2    2
 3.6526212800502694e-03    7    5    3    1
 6.7888920034994281e-04    7    5    3    2
 4.0217446296822236e-12    7    5    3    3
-3.9114894669090846e-07    7    5    4    1
-2.9819965879700305e-08    7    5    4    2
 1.0721702043785225e-14    7    5    4    3
 4.3817133744307114e-12    7    5    4    4
 2.0253526614113531e-12    7    5    5    1
 1.8443140286838708e-12    7    5    5    2
-6.8757994987654380e-03    7    5    5    3
 7.3612483858685993e-07    7    5    5    4
 3.8880765156323768e-12    7    5    5    5
 2.4163642389139045e-12    7    5    6    1
 1.2909777895075386e-12    7    5    6    2
-1.6632453888785405e-02    7    5    6    3
 1.8108160443241022e-06    7    5    6    4
-3.2643347821311331e-13    7    5    6    5
 3.8176152264094327e-12    7    5    6    6
-3.9849530205848275e-03    7    5    7    1
-4.3262682805802434e-03    7    5    7    2
-7.2197318590897173e-13    7    5    7    3
-1.5215339112380622e-13    7    5    7    4
 1.7581755510141062e-02    7    5    7    5
 3.3919857548340204e-12    7    6    1    1
 2.2772024584028365e-12    7    6    2    1
 1.2617468910191817e-11    7    6    2    2
 9.9676443862553588e-03    7    6    3    1
 2.9382047246977048e-02    7    6    3    2
-8.6808361364606179e-12    7    6    3    3
-1.0829498622240200e-06    7    6    4    1
-3.1933953424584393e-06    7    6    4    2
 9.5202313704541034e-13    7    6    4    3
-8.9185603800507892e-13    7    6    4    4
 2.4676097233521258e-12    7    6    5    1
 3.2870541380407643e-12    7    6    5    2
-2.7720312490003542e-02    7    6    5    3
 3.0270543863860693e-06    7    6    5    4
-4.0348442136635449e-12    7    6    5    5
 2.9044345189014196e-12    7    6    6    1
 2.6838291026735549e-12    7    6    6    2
-2.0096972228580989e-02    7    6    6    3
 2.1870176986831850e-06    7    6    6    4
-1.0342998980412239e-14    7    6    6    5
-2.6768820460119464e-12    7    6    6    6
-1.1175339475793564e-02    7    6    7    1
-8.1122837790350583e-03    7    6    7    2
 1.1800943980837420e-12    7    6    7    3
-2.4275400253849980e-13    7    6    7    4
 7.3713666924667930e-03    7    6    7    5
 2.5137037680686498e-02    7    6    7    6
 1.1155099104027522e+00    7    7    1    1
-1.8225187364870121e-02    7    7    2    1
 7.2383534784833070e-01    7    7    2    2
-7.1500762070126623e-12    7    7    3    1
-3.3491790884182725e-11    7    7    3    2
 7.5330182510936261e-01    7    7    3    3
-5.2311573553535634e-13    7    7    4    1
 1.1673414171615498e-12    7    7    4    2
-6.8666926760772146e-06    7    7    4    3
 6.9041413443575861e-01    7    7    4    4
 4.0629759882749323e-03    7    7    5    1
-3.9653025839433229e-03    7    7    5    2
 6.0098065675271933e-12    7    7    5    3
-1.2113970994407190e-13    7    7    5    4
 6.2906743226228534e-01    7    7    5    5
 7.5998999516093350e-03    7    7    6    1
-1.8275241460376384e-02    7    7    6    2
 5.9788918086609954e-12    7    7    6    3
-3.1867880969388437e-13    7    7    6    4
 1.7000011282889121e-01    7    7    6    5
 6.0392053543135915e-01    7    7    6    6
 7.2649535014273156e-12    7    7    7    1
 8.0282269755111640e-12    7    7    7    2
-1.8345881896804184e-01    7    7    7    3
 2.0030913122407371e-05    7    7    7    4
 4.5467932179467312e-12    7    7    7    5
-6.9393121132191082e-12    7    7    7    6
 6.7735339024253027e-01    7    7    7    7
-1.6358815025268410e-11    8    1    1    1
 9.7488411854993895e-13    8    1    2    1
-3.4590297723601616e-12    8    1    2    2
 4.9653446776925501e-06    8    1    3    1
 4.6523725422753868e-06    8    1    3    2
-5.4509691526500236e-13    8    1    3    3
 4.5539371356041365e-02    8    1    4    1
 4.2607511872724872e-02    8    1    4    2
-5.9148241930981044e-12    8    1    4    3
 2.4350534758468360e-12    8    1    4    4
-8.5335268096653156e-14    8    1    5    1
 6.8602640554194269e-13    8    1    5    2
-9.5117550345761618e-07    8    1    5    3
-8.7192874390391150e-03    8    1    5    4
-6.1446023222012607e-13    8    1    5    5
-2.9958493403567964e-13    8    1    6    1
 8.7852364419848533e-13    8    1    6    2
-1.3314835642532529e-06    8    1    6    3
-1.2212084778008661e-02    8    1    6    4
-5.7323542474580834e-13    8    1    6    5
-9.0929155797257136e-13    8    1    6    6
-2.1594630652473633e-16    8    1    7    1
 7.2170242316320257e-09    8    1    7    2
 5.9646741532278292e-13    8    1    7    3
 3.5705408204349145e-12    8    1    7    4
 7.3478452736605023e-09    8    1    7    5
 3.7757699772404767e-09    8    1    7    6
-7.0665912945850485e-13    8    1    7    7
 5.5092244191679018e-02    8    1    8    1
-2.3934685759432479e-12    8    2    1    1
-8.4574847825018916e-13    8    2    2    1
-4.4873306637811901e-12    8    2    2    2
 2.6231585279829154e-06    8    2    3    1
 5.8167829764132767e-06    8    2    3    2
-9.9409278884210201e-13    8    2    3    3
 2.3989706695229884e-02    8    2    4    1
 5.2839837266659966e-02    8    2    4    2
-5.2292651535077636e-12    8    2    4    3
 1.9502196897550175e-12    8    2    4    4
 3.5605688093505978e-13    8    2    5    1
 6.9966697654425498e-13    8    2    5    2
-6.1058546813012347e-07    8    2    5    3
-5.7158545129392061e-03    8    2    5    4
-7.9125747641261502e-13    8    2    5    5
 4.9374476574829192e-13    8    2    6    1
 1.3031041006857052e-12    8    2    6    2
-1.5576007811880833e-06    8    2    6    3
-1.4308761677432476e-02    8    2    6    4
-8.9692827241343915e-13    8    2    6    5
-7.7229457427173053e-13    8    2    6    6
-7.2170243152732925e-09    8    2    7    1
 6.9178094403146902e-16    8    2    7    2
 2.8785210362521514e-13    8    2    7    3
 4.6504262176075081e-12    8    2    7    4
 5.0250599669490635e-09    8    2    7    5
 5.2288573051896444e-09    8    2    7    6
-9.0711256150428540e-13    8    2    7    7
 2.6993369464543712e-02    8    2    8    1
 4.7373849174705010e-02    8    2    8    2
 6.4273740868670204e-05    8    3    1    1
-1.6245928458332431e-06    8    3    2    1
 2.6073265085740210e-05    8    3    2    2
 6.6989836889249708e-13    8    3    3    1
 3.7731168399805610e-13    8    3    3    2
 2.6594624905204920e-05    8    3    3    3
-3.2581997778391358e-12    8    3    4    1
-4.9277693805896893e-12    8    3    4    2
 1.3326887994116165e-02    8    3    4    3
 2.3669627671160744e-05    8    3    4    4
 4.0198148556753689e-07    8    3    5    1
 3.6058838529288006e-07    8    3    5    2
 1.5582737796754324e-14    8    3    5    3
 6.5644192840505312e-13    8    3    5    4
 1.8278766354063711e-05    8    3    5    5
 7.2956124171243865e-07    8    3    6    1
-1.6011390314482096e-06    8    3    6    2
-3.1622642607162007e-13    8    3    6    3
 1.7323485352340249e-12    8    3    6    4
 1.4354906946959642e-05    8    3    6    5
 1.8548030332412562e-05    8    3    6    6
-7.5070884834405801e-13    8    3    7    1
-8.6967703607884211e-13    8    3    7    2
-1.7857081023302991e-05    8    3    7    3
-1.9734010388160920e-02    8    3    7    4
 1.7359284911414434e-13    8    3    7    5
 5.7383056373910019e-14    8    3    7    6
 1.8619623154558519e-05    8    3    7    7
-3.6561457449381287e-12    8    3    8    1
-3.7414995937169884e-12    8    3    8    2
 1.9734014288612878e-02    8    3    8    3
 5.8877450635309192e-01    8    4    1    1
-1.4922533507605206e-02    8    4    2    1
 2.3836745615159155e-01    8    4    2    2
 1.7358972893136169e-12    8    4    3    1
-2.3419783549660353e-12    8    4    3    2
 2.1672645455165510e-01    8    4    3    3
 1.1688751651643504e-12    8    4    4    1
 2.9359625540160824e-12    8    4    4    2
 1.4624986162227214e-06    8    4    4    3
 2.4338023053986879e-01    8    4    4    4
 3.6156541615883779e-03    8    4    5    1
 2.8965180734396175e-03    8    4    5    2
-6.3016848854356252e-13    8    4    5    3
-1.6418564370703605e-13    8    4    5    4
 1.6767389546676867e-01    8    4    5    5
 6.6052018138197761e-03    8    4    6    1
-1.4886129498094085e-02    8    4    6    2
 8.1453723679777213e-13    8    4    6    3
-1.1102560896113487e-12    8    4    6    4
 1.3134129990694918e-01    8    4    6    5
 1.7017128459533667e-01    8    4    6    6
-2.8078035276832489e-12    8    4    7    1
 2.4010496668758472e-12    8    4    7    2
-1.4377520546968528e-01    8    4    7    3
 1.7857081022859197e-05    8    4    7    4
 2.0767979738167083e-12    8    4    7    5
 8.2234112034719948e-13    8    4    7    6
 1.7042915531526528e-01    8    4    7    7
 1.2147828069972517e-12    8    4    8    1
 1.6575371684579253e-12    8    4    8    2
 1.7857081023229079e-05    8    4    8    3
 1.8324323014646177e-01    8    4    8    4
 2.1026828030942663e-12    8    5    1    1
 2.4307813324168127e-13    8    5    2    1
 1.3848247154714697e-12    8    5    2    2
-3.9114894668043273e-07    8    5    3    1
-2.9819966657877441e-08    8    5    3    2
 8.8607982729437051e-13    8    5    3    3
-3.6526212800507486e-03    8    5    4    1
-6.7888920035778821e-04    8    5    4    2
 3.3873212687291013e-14    8    5    4    3
 8.0217678950895371e-13    8    5    4    4
 4.2669434376866806e-13    8    5    5    1
 3.5287892055168979e-13    8    5    5    2
 7.3612483896668242e-07    8    5    5    3
 6.8757994987694087e-03    8    5    5    4
 7.8329939587982444e-13    8    5    5    5
 5.0796760263163224e-13    8    5    6    1
 1.8302265297651376e-13    8    5    6    2
 1.8108160458762261e-06    8    5    6    3
 1.6632453888792344e-02    8    5    6    4
-9.1327919091147075e-14    8    5    6    5
 7.7805805281265127e-13    8    5    6    6
-7.3478452485254366e-09    8    5    7    1
-5.0250605737386408e-09    8    5    7    2
-4.1889832880480302e-13    8    5    7    3
-8.1369590982424058e-13    8    5    7    4
 1.0766570669051541e-16    8    5    7    5
 7.5519088839973451e-09    8    5    7    6
 7.8445006976320739e-13    8    5    7    7
-3.9849530205858371e-03    8    5    8    1
-4.3262682805776621e-03    8    5    8    2
 6.0966921785981232e-13    8    5    8    3
 1.0776335275411633e-13    8    5    8    4
 1.7581755510139758e-02    8    5    8    5
 7.4927101842793854e-13    8    6    1    1
 5.3434039946064527e-13    8    6    2    1
 3.0000951771647439e-12    8    6    2    2
-1.0829498597205762e-06    8    6    3    1
-3.1933953515839199e-06    8    6    3    2
-1.6963004101519532e-13    8    6    3    3
-9.9676443862462220e-03    8    6    4    1
-2.9382047247012960e-02    8    6    4    2
 3.7742417295635381e-12    8    6    4    3
-2.1255239407447782e-12    8    6    4    4
 5.1997813087363212e-13    8    6    5    1
 5.4492866341081877e-13    8    6    5    2
 3.0270543897003982e-06    8    6    5    3
 2.7720312490015771e-02    8    6    5    4
-8.4868420718049678e-13    8    6    5    5
 6.1101700921247047e-13    8    6    6    1
 4.5496005175362546e-13    8    6    6    2
 2.1870176816769429e-06    8    6    6    3
 2.0096972228517234e-02    8    6    6    4
 1.0776738695371685e-14    8    6    6    5
-5.6314121504238531e-13    8    6    6    6
-3.7757725996026486e-09    8    6    7    1
-5.2288696323429446e-09    8    6    7    2
-1.7948717050095502e-13    8    6    7    3
-2.7185869700136064e-13    8    6    7    4
-7.5519051505202808e-09    8    6    7    5
-2.9223389525216600e-15    8    6    7    6
-6.1967615345070233e-14    8    6    7    7
-1.1175339475784859e-02    8    6    8    1
-8.1122837789909547e-03    8    6    8    2
 9.4747285335037838e-13    8    6    8    3
-2.8819046517417341e-13    8    6    8    4
 7.3713666924557220e-03    8    6    8    5
 2.5137037680710340e-02    8    6    8    6
-2.8397884899373923e-15    8    7    1    1
 1.2406875199994769e-16    8    7    2    1
 3.0096405208658479e-16    8    7    2    2
-9.4575482248730302e-13    8    7    3    1
-2.9542871572166556e-12    8    7    3    2
-6.8666926764832034e-06    8    7    3    3
 4.5011573098139574e-12    8    7    4    1
 1.4855140880174540e-11    8    7    4    2
-3.1443845336794798e-02    8    7    4    3
 6.8666926742526032e-06    8    7    4    4
-2.8977863164091405e-17    8    7    5    1
-5.2001758716612355e-16    8    7    5    2
 6.2063830107798900e-13    8    7    5    3
-2.9328344492145034e-12    8    7    5    4
-6.5404208545641904e-16    8    7    5    5
-6.6505673250581262e-16    8    7    6    1
-1.0502521347369381e-14    8    7    6    2
 4.8752739994643456e-13    8    7    6    3
-2.3150824610506455e-12    8    7    6    4
 1.5313221711407635e-15    8    7    6    5
 1.2102906901384179e-15    8    7    6    6
 1.0825593241706127e-12    8    7    7    1
 5.6965762303259449e-13    8    7    7    2
 7.0564498506830748e-07    8    7    7    3
 6.5148318263898693e-03    8    7    7    4
 1.3263443124745327e-13    8    7    7    5
-7.0802470436982981e-13    8    7    7    6
-8.8073466817894878e-16    8    7    7    7
 5.1451565120156824e-12    8    7    8    1
 2.8897220630336239e-12    8    7    8    2
-6.5148318263929320e-03    8    7    8    3
 7.0564498353344746e-07    8    7    8    4
 6.2856130681417085e-13    8    7    8    5
-3.3694703247478553e-12    8    7    8    6
 3.0823005933971009e-02    8    7    8    7
 1.1155099104028190e+00    8    8    1    1
-1.8225187364872303e-02    8    8    2    1
 7.2383534784834758e-01    8    8    2    2
 2.0788025189078627e-12    8    8    3    1
-4.6656968720545157e-12    8    8    3    2
 6.9041413443580046e-01    8    8    3    3
 1.4168954228263341e-12    8    8    4    1
 6.8869969385883325e-12    8    8    4    2
 6.8666926746166740e-06    8    8    4    3
 7.5330182510937538e-01    8    8    4    4
 4.0629759882752862e-03    8    8    5    1
-3.9653025839366729e-03    8    8    5    2
 4.6958146504869588e-13    8    8    5    3
-1.2928333227487314e-12    8    8    5    4
 6.2906743226230277e-01    8    8    5    5
 7.5998999516145799e-03    8    8    6    1
-1.8275241460298089e-02    8    8    6    2
 1.1503953346729363e-12    8    8    6    3
-1.3362026799143754e-12    8    8    6    4
 1.7000011282889080e-01    8    8    6    5
 6.0392053543136293e-01    8    8    6    6
-3.3306451610165907e-12    8    8    7    1
 1.5955014124878243e-13    8    8    7    2
-1.7042915531527647e-01    8    8    7    3
 1.8619623153524413e-05    8    8    7    4
 3.8562570111600876e-12    8    8    7    5
-3.6394544152149553e-13    8    8    7    6
 6.1570737837461154e-01    8    8    7    7
 1.5238240792682061e-12    8    8    8    1
 6.7952448241301774e-13    8    8    8    2
 2.0030913122910055e-05    8    8    8    3
 1.8345881896806546e-01    8    8    8    4
 9.2840724854573036e-13    8    8    8    5
-1.4429944211787544e-12    8    8    8    6
-9.6609866678465985e-16    8    8    8    7
 6.7735339024257712e-01    8    8    8    8
 4.4208779182594876e-01    9    1    1    1
-7.1523516485557617e-02    9    1    2    1
 9.3333685994909064e-03    9    1    2    2
 1.9318888228372667e-12    9    1    3    1
-6.3595269748668065e-12    9    1    3    2
 1.3359024213183492e-02    9    1    3    3
-7.8599124106704511e-13    9    1    4    1
 1.3140018549801109e-12    9    1    4    2
-1.0693248265734086e-15    9    1    4    3
 1.3359024213169403e-02    9    1    4    4
-2.1017322649004738e-03    9    1    5    1
-1.4519050434028026e-02    9    1    5    2
 3.4229118195136630e-12    9    1    5    3