 &FCI NORB=28,NELEC=12,MS2=0,
  ORBSYM= 1,1,1,1,1,1,1,1,1,1,1,1,1,1,1,1,1,1,1,1,1,1,1,1,1,1,1,1,
  ISYM=1
 &END
 5.3758841711757626e+00    1    1    1    1
 1.7845810268739513e-03    2    1    1    1
 8.2629381813124961e-07    2    1    2    1
 3.3739766173284741e-01    2    2    1    1
-1.8393763959221592e-04    2    2    2    1
 1.6520888214263691e+00    2    2    2    2
 3.7175368941836373e-01    3    1    1    1
 8.7028617439716686e-05    3    1    2    1
 3.5375956282519697e-03    3    1    2    2
 5.9157786860921872e-02    3    1    3    1
 1.4733596924676605e-03    3    2    1    1
-1.4493173715795794e-06    3    2    2    1
-1.7213547641542665e-02    3    2    2    2
 1.3481304856533606e-04    3    2    3    1
 5.3845273102086334e-04    3    2    3    2
 1.2335106518226628e+00    3    3    1    1
 4.0608656866046252e-04    3    3    2    1
 2.8074180445259916e-01    3    3    2    2
-1.3211983562415847e-02    3    3    3    1
 2.5852857289680595e-04    3    3    3    2
 1.0312835099154627e+00    3    3    3    3
-3.2342875293180950e-01    4    1    1    1
-1.5426425494114346e-04    4    1    2    1
 3.8151646800564055e-03    4    1    2    2
-2.0429886254622564e-02    4    1    3    1
 1.3698549751766468e-04    4    1    3    2
-3.6489980872757261e-02    4    1    3    3
 5.1207990398956522e-02    4    1    4    1
 1.1209208320918334e-02    4    2    1    1
 3.5878706309809402e-07    4    2    2    1
-6.6862901811036643e-02    4    2    2    2
 2.8710122445842131e-04    4    2    3    1
 1.7967391132403172e-03    4    2    3    2
 7.0374767269809346e-03    4    2    3    3
 3.6248041159992687e-04    4    2    4    1
 6.2407086806304376e-03    4    2    4    2
-3.7515182390981124e-02    4    3    1    1
-9.2419675540804211e-06    4    3    2    1
 7.9175387199309829e-03    4    3    2    2
-4.8256542380919563e-03    4    3    3    1
-5.4941787738995641e-06    4    3    3    2
 4.6037923991978100e-03    4    3    3    3
-2.1004812797611509e-04    4    3    4    1
 4.1508599800726349e-05    4    3    4    2
 1.6243400740980643e-02    4    3    4    3
 1.1887518459837230e+00    4    4    1    1
 2.1454232736284860e-04    4    4    2    1
 4.2577893562542291e-01    4    4    2    2
 3.4397088415704172e-02    4    4    3    1
 3.4145425649114501e-03    4    4    3    2
 6.7865212804401298e-01    4    4    3    3
 1.7358906024766290e-02    4    4    4    1
 1.5304633224292456e-02    4    4    4    2
-1.9352100228049129e-02    4    4    4    3
 1.0019967905326266e+00    4    4    4    4
 3.5819624189114379e-14    5    1    1    1
 1.3299569291918393e-17    5    1    2    1
-9.1347214899349623e-17    5    1    2    2
 2.2797230271748553e-15    5    1    3    1
-9.6637379276158601e-18    5    1    3    2
 3.9477678412478401e-15    5    1    3    3
-1.8850819414033361e-15    5    1    4    1
-1.2885659050754947e-18    5    1    4    2
-2.9571349511649329e-15    5    1    4    3
 3.2919736146187521e-15    5    1    4    4
 3.3847365529651181e-02    5    1    5    1
-6.5934473175264611e-16    5    2    1    1
 7.3745642517615403e-20    5    2    2    1
 3.6078995198342163e-15    5    2    2    2
-1.9900152072217199e-17    5    2    3    1
-1.1038748011058224e-16    5    2    3    2
-3.8516915220182720e-16    5    2    3    3
-6.5218209515603636e-18    5    2    4    1
-3.0167717211321042e-16    5    2    4    2
-1.2200983476077977e-16    5    2    4    3
-6.1079664399998460e-16    5    2    4    4
 1.5482635372615961e-04    5    2    5    1
 3.9958831754739608e-04    5    2    5    2
 5.7139792881796498e-15    5    3    1    1
 5.3795422782380684e-18    5    3    2    1
-2.6857980185471962e-15    5    3    2    2
 5.4215077117511432e-16    5    3    3    1
-2.9657641045698310e-17    5    3    3    2
 7.6689620114202396e-16    5    3    3    3
-3.0495397860185089e-15    5    3    4    1
-1.5355074192460376e-16    5    3    4    2
 1.0239289446001795e-14    5    3    4    3
-1.1370905245151629e-14    5    3    4    4
-2.6222334445031741e-02    5    3    5    1
-6.3799296895726424e-04    5    3    5    2
 1.0640910522204387e-01    5    3    5    3
-3.7311423649461584e-15    5    4    1    1
 5.3585559802567807e-18    5    4    2    1
-5.8978888373846629e-15    5    4    2    2
-2.9622555151374020e-15    5    4    3    1
-1.9607295553238525e-16    5    4    3    2
 1.3079350389138815e-14    5    4    3    3
-7.0386133700248914e-18    5    4    4    1
-2.6118597296078716e-16    5    4    4    2
-8.4792548757161766e-15    5    4    4    3
-2.2680741240601119e-15    5    4    4    4
 2.3454692652358090e-02    5    4    5    1
 1.7467461409206315e-03    5    4    5    2
-6.1063513123278415e-02    5    4    5    3
 9.8424633969993486e-02    5    4    5    4
 1.1523263499831553e+00    5    5    1    1
 2.9095016129928393e-04    5    5    2    1
 3.2944672967528454e-01    5    5    2    2
 8.5444529733372868e-03    5    5    3    1
 1.5646126442117596e-03    5    5    3    2
 7.9139926785708337e-01    5    5    3    3
-6.4386886919522998e-03    5    5    4    1
 9.4652939559069643e-03    5    5    4    2
-3.2107548064918563e-02    5    5    4    3
 7.8174549892933709e-01    5    5    4    4
-4.7623616695812451e-15    5    5    5    1
-8.2712583259435807e-16    5    5    5    2
 1.8102978969049778e-14    5    5    5    3
-1.7001772537329352e-14    5    5    5    4
 8.2256249988469099e-01    5    5    5    5
 3.5214680856897324e-14    6    1    1    1
 1.2942641822563831e-17    6    1    2    1
-9.3659657388757155e-17    6    1    2    2
 2.2441318748522764e-15    6    1    3    1
-9.3593197389843740e-18    6    1    3    2
 3.8652548855040207e-15    6    1    3    3
-1.8531436424417597e-15    6    1    4    1
-1.0675150507232103e-18    6    1    4    2
-2.9077268965708980e-15    6    1    4    3
 3.2309070680773870e-15    6    1    4    4
-2.1014969306710740e-10    6    1    5    1
-8.7341053854027195e-12    6    1    5    2
 1.0039625679984212e-09    6    1    5    3
-9.4657757346584187e-10    6    1    5    4
 6.0705945246647839e-16    6    1    5    5
 3.3847355560343698e-02    6    1    6    1
-6.4415693652214721e-16    6    2    1    1
-5.6066724117409328e-20    6    2    2    1
 3.5066241381779911e-15    6    2    2    2
-1.9425035498967711e-17    6    2    3    1
-1.0760879930052328e-16    6    2    3    2
-3.7610346501469860e-16    6    2    3    3
-6.1952985716713024e-18    6    2    4    1
-2.9273933479199308e-16    6    2    4    2
-1.2022670798028582e-16    6    2    4    3
-5.9386441762143887e-16    6    2    4    4
-7.2431647742542453e-12    6    2    5    1
-3.1486191096257965e-11    6    2    5    2
 9.7511767419410129e-11    6    2    5    3
-1.1801556051627699e-10    6    2    5    4
-5.2879292985416005e-16    6    2    5    5
 1.5482624902268816e-04    6    2    6    1
 3.9958767233986799e-04    6    2    6    2
 5.6601828800947768e-15    6    3    1    1
 5.4857681700537746e-18    6    3    2    1
-2.6471960040658558e-15    6    3    2    2
 5.2851930467193275e-16    6    3    3    1
-2.9694171706939935e-17    6    3    3    2
 7.8845252728245254e-16    6    3    3    3
-3.0007530055143014e-15    6    3    4    1
-1.5128225366465874e-16    6    3    4    2
 1.0066503277753135e-14    6    3    4    3
-1.1155334150246464e-14    6    3    4    4
 1.0022569279993117e-09    6    3    5    1
 1.0545073450104761e-10    6    3    5    2
-8.2373445837701376e-09    6    3    5    3
 7.9248403624014766e-09    6    3    5    4
 4.1188829181145789e-15    6    3    5    5
-2.6222322168276916e-02    6    3    6    1
-6.3799209812965044e-04    6    3    6    2
 1.0640903757368141e-01    6    3    6    3
-3.6696872684533952e-15    6    4    1    1
 4.9182940345114914e-18    6    4    2    1
-5.7444749801062556e-15    6    4    2    2
-2.9117543861885618e-15    6    4    3    1
-1.9255502084291385e-16    6    4    3    2
 1.2861528621013017e-14    6    4    3    3
-4.0440440615510874e-18    6    4    4    1
-2.5502368224585266e-16    6    4    4    2
-8.3357538588772710e-15    6    4    4    3
-2.2290013905349947e-15    6    4    4    4
-9.3647740843085688e-10    6    4    5    1
-1.3466385818278887e-10    6    4    5    2
 7.8843115881379717e-09    6    4    5    3
-7.4753507910669325e-09    6    4    5    4
-3.8036077037105941e-15    6    4    5    5
 2.3454681203830156e-02    6    4    6    1
 1.7467447398016524e-03    6    4    6    2
-6.1063447652081639e-02    6    4    6    3
 9.8424570014154777e-02    6    4    6    4
-1.9414680036534048e-10    6    5    1    1
-7.2948595924412991e-13    6    5    2    1
-3.2295667634619805e-10    6    5    2    2
 8.7211622907445690e-11    6    5    3    1
 2.7855789259596699e-11    6    5    3    2
-2.8015089910665597e-09    6    5    3    3
-8.2861636841459171e-11    6    5    4    1
-1.7198463319442849e-12    6    5    4    2
 3.4241052144593663e-09    6    5    4    3
-2.6083156206372900e-09    6    5    4    4
-2.6469192174889143e-15    6    5    5    1
-1.3910732460315698e-16    6    5    5    2
 6.8324614246448946e-15    6    5    5    3
-6.4317069940677655e-15    6    5    5    4
 9.2947772571003010e-10    6    5    5    5
-2.6918845932200547e-15    6    5    6    1
-1.4206957632536559e-16    6    5    6    2
 6.9519544962342120e-15    6    5    6    3
-6.5466478522783135e-15    6    5    6    4
 3.9746609867844208e-02    6    5    6    5
 1.1523262707279347e+00    6    6    1    1
 2.9095012827890887e-04    6    6    2    1
 3.2944672121947477e-01    6    6    2    2
 8.5444515597983654e-03    6    6    3    1
 1.5646128806447125e-03    6    6    3    2
 7.9139922934408025e-01    6    6    3    3
-6.4386877008799550e-03    6    6    4    1
 9.4652940155287944e-03    6    6    4    2
-3.2107519171737382e-02    6    6    4    3
 7.8174545834720888e-01    6    6    4    4
 6.2712745914498488e-16    6    6    5    1
-5.4217312323442361e-16    6    6    5    2
 4.1673382197874114e-15    6    6    5    3
-3.8763580426453110e-15    6    6    5    4
 7.4306927149142288e-01    6    6    5    5
-4.6954071045948569e-15    6    6    6    1
-8.0826383709021175e-16    6    6    6    2
 1.7831689322190885e-14    6    6    6    3
-1.6715679007293662e-14    6    6    6    4
 9.2947797165090199e-10    6    6    6    5
 8.2256248256954045e-01    6    6    6    6
-4.1094256632145402e-14    7    1    1    1
-1.5456227832042769e-17    7    1    2    1
 1.1721829568449022e-16    7    1    2    2
-2.2951754715202659e-15    7    1    3    1
 1.2034085847797065e-17    7    1    3    2
-5.0373699102711521e-15    7    1    3    3
 1.9127655779216179e-15    7    1    4    1
-2.2452131378266978e-18    7    1    4    2
 3.3667772937367063e-15    7    1    4    3
-4.1824119448490109e-15    7    1    4    4
-4.1148163903023741e-02    7    1    5    1
-1.8815555281862057e-04    7    1    5    2
 3.0140651541181177e-02    7    1    5    3
-2.6826683369924182e-02    7    1    5    4
 5.0718095680780753e-15    7    1    5    5
 3.2505698669608972e-10    7    1    6    1
 7.8162171689404803e-12    7    1    6    2
-1.1678888171759730e-09    7    1    6    3
 1.0896150707515938e-09    7    1    6    4
 3.0428849212906582e-15    7    1    6    5
-1.1757818577925625e-15    7    1    6    6
 5.0140098616394638e-02    7    1    7    1
-9.0094923622605424e-16    7    2    1    1
 4.1278881085265867e-19    7    2    2    1
 6.8247108994098337e-15    7    2    2    2
-2.6665778117138332e-17    7    2    3    1
-2.2405372854357673e-16    7    2    3    2
-5.4817808500238346e-16    7    2    3    3
-7.0379328211263407e-18    7    2    4    1
-5.9022943820900445e-16    7    2    4    2
-1.7067854177611361e-16    7    2    4    3
-8.4720447867857961e-16    7    2    4    4
 1.5003254236378090e-04    7    2    5    1
 8.3822788286778938e-04    7    2    5    2
-7.3458241623492295e-04    7    2    5    3
 2.6086696715711152e-03    7    2    5    4
-1.1897201291201518e-15    7    2    5    5
 7.5085020043691433e-14    7    2    6    1
-2.7718872113170661e-11    7    2    6    2
 1.0505271324975743e-10    7    2    6    3
-1.0939984588388025e-10    7    2    6    4
-1.9896748777641964e-16    7    2    6    5
-7.8351369884559684e-16    7    2    6    6
-1.9099976858512015e-04    7    2    7    1
 1.7986206615051362e-03    7    2    7    2
 1.1485866163367745e-15    7    3    1    1
 1.0381012196325189e-18    7    3    2    1
-2.9100549170730873e-15    7    3    2    2
-7.1144208890746886e-16    7    3    3    1
-3.9157481975665932e-17    7    3    3    2
 6.3368626922668467e-15    7    3    3    3
 1.9356372952301160e-15    7    3    4    1
 1.9019485922686652e-18    7    3    4    2
-4.2020201076478341e-15    7    3    4    3
 4.5789036914888160e-15    7    3    4    4
 1.9048957703116747e-02    7    3    5    1
 3.3834581888224466e-04    7    3    5    2
-4.7773015400799229e-02    7    3    5    3
 2.6806872238008525e-02    7    3    5    4
-6.1424405238884007e-15    7    3    5    5
-4.2443217784956615e-10    7    3    6    1
 2.7376766658205105e-11    7    3    6    2
 1.5745724612386867e-09    7    3    6    3
-1.1026092685557290e-09    7    3    6    4
-3.1248420605653957e-15    7    3    6    5
 1.0627581213373542e-15    7    3    6    6
-2.1862897046539091e-02    7    3    7    1
 4.4369511840822807e-04    7    3    7    2
 3.8348595612073683e-02    7    3    7    3
-1.4498012198847951e-15    7    4    1    1
-5.7463043630660271e-20    7    4    2    1
-3.9966490991854145e-15    7    4    2    2
 1.9096361218780620e-15    7    4    3    1
-5.7757405617653338e-17    7    4    3    2
-5.6048496564058752e-15    7    4    3    3
-6.3236874346357300e-17    7    4    4    1
-9.1219977482570184e-18    7    4    4    2
 2.5014720650792005e-15    7    4    4    3
-1.9649700743652549e-15    7    4    4    4
-1.5032052470315554e-02    7    4    5    1
 7.6627858334394141e-04    7    4    5    2
 1.9961044334931410e-02    7    4    5    3
-2.7051924390912023e-02    7    4    5    4
 2.9475162726357729e-15    7    4    5    5
 3.9560736498152015e-10    7    4    6    1
-4.4290097697624471e-11    7    4    6    2
-7.9207560776616960e-10    7    4    6    3
 6.0169530649212089e-10    7    4    6    4
 1.6551110617557318e-15    7    4    6    5
-1.1670613715540217e-15    7    4    6    6
 1.7054522144942491e-02    7    4    7    1
 1.5779239376562761e-03    7    4    7    2
-1.5099104427004663e-02    7    4    7    3
 3.2373311206809467e-02    7    4    7    4
-5.8751977764570007e-01    7    5    1    1
-2.2281439633436902e-04    7    5    2    1
-8.7224236013114915e-04    7    5    2    2
-9.3237161172372556e-03    7    5    3    1
 1.8448833735330910e-05    7    5    3    2
-2.5364564704893544e-01    7    5    3    3
 9.5442698385845362e-03    7    5    4    1
-1.9683384075916432e-03    7    5    4    2
 1.3611762259998772e-02    7    5    4    3
-2.1999371814133570e-01    7    5    4    4
 2.8325143196785336e-15    7    5    5    1
 2.8045312072379914e-17    7    5    5    2
-7.4743958118305447e-15    7    5    5    3
 4.5696263762108620e-15    7    5    5    4
-2.4474018790286967e-01    7    5    5    5
-9.0379873983503562e-16    7    5    6    1
 1.2177044156344801e-16    7    5    6    2
-2.2097178750951275e-15    7    5    6    3
 5.1739632987593472e-16    7    5    6    4
 1.2470909606614317e-10    7    5    6    5
-2.1760918030218612e-01    7    5    6    6
-2.9085320074207124e-15    7    5    7    1
-1.0368603920190895e-16    7    5    7    2
 3.9998800481149449e-15    7    5    7    3
-4.0814865097258833e-15    7    5    7    4
 1.8171550614716270e-01    7    5    7    5
 4.6764625135604435e-09    7    6    1    1
 2.2021763757354962e-12    7    6    2    1
-7.1693413319873340e-11    7    6    2    2
-2.6461239692935554e-11    7    6    3    1
 1.1195947776238952e-11    7    6    3    2
 3.0549551679921193e-09    7    6    3    3
 2.4019769787419557e-11    7    6    4    1
 2.9578678945931161e-11    7    6    4    2
-6.6468815739258689e-10    7    6    4    3
 2.4904634569342844e-09    7    6    4    4
 1.7651701496544231e-15    7    6    5    1
-3.7563952964400391e-17    7    6    5    2
-2.5753142787386619e-15    7    6    5    3
 1.8451750202119861e-15    7    6    5    4
 2.1796401682430248e-09    7    6    5    5
 1.5638651438687163e-15    7    6    6    1
-8.3066010022850333e-17    7    6    6    2
-7.4616742699333478e-16    7    6    6    3
 4.4042065987222410e-16    7    6    6    4
-1.3565490766505976e-02    7    6    6    5
 2.2793441863967243e-09    7    6    6    6
-2.0091334457120678e-15    7    6    7    1
-8.7197914845042164e-17    7    6    7    2
 1.7788870407790097e-15    7    6    7    3
-1.5433353508759176e-15    7    6    7    4
-1.1974666564829089e-09    7    6    7    5
 1.8162045115166406e-02    7    6    7    6
 1.0453147124232667e+00    7    7    1    1
 2.4897858206949386e-04    7    7    2    1
 3.3425582488494116e-01    7    7    2    2
 1.2592779950877845e-02    7    7    3    1
 1.3977572787064376e-03    7    7    3    2
 6.5003190118694232e-01    7    7    3    3
-1.0509022115275027e-02    7    7    4    1
 7.2926069516266855e-03    7    7    4    2
-2.0093989587449398e-02    7    7    4    3
 6.5513298883048843e-01    7    7    4    4
-3.4936884804863016e-15    7    7    5    1
-7.7943277220496634e-16    7    7    5    2
 1.3023591582887496e-14    7    7    5    3
-1.3437984862276746e-14    7    7    5    4
 6.7745462893408637e-01    7    7    5    5
 1.0651096949769814e-15    7    7    6    1
-4.0295746675534682e-16    7    7    6    2
 2.4301887180809972e-15    7    7    6    3
-2.9021729562401779e-15    7    7    6    4
 2.3972109316876796e-10    7    7    6    5
 6.2297534223437567e-01    7    7    6    6
 3.7470596259454504e-15    7    7    7    1
-1.2620701072332074e-15    7    7    7    2
-4.7285857040130401e-15    7    7    7    3
 5.3427968611367461e-16    7    7    7    4
-1.8808572821545366e-01    7    7    7    5
 1.7765390141919312e-09    7    7    7    6
 5.9766632651558005e-01    7    7    7    7
-4.0413614421323883e-14    8    1    1    1
-1.5028899735522067e-17    8    1    2    1
 9.4725659077039624e-17    8    1    2    2
-2.2579659881434287e-15    8    1    3    1
 1.1649383883889160e-17    8    1    3    2
-4.9626532607729161e-15    8    1    3    3
 1.8791647715954790e-15    8    1    4    1
-2.4776682904954300e-18    8    1    4    2
 3.3101757060373955e-15    8    1    4    3
-4.1275131257952334e-15    8    1    4    4
 3.7817739861110914e-10    8    1    5    1
 9.8329440590456043e-12    8    1    5    2
-1.2035799414632056e-09    8    1    5    3
 1.1325657364673804e-09    8    1    5    4
-1.1698839289330913e-15    8    1    5    5
-4.1148158944655684e-02    8    1    6    1
-1.8815546521008079e-04    8    1    6    2
 3.0140642731963305e-02    8    1    6    3
-2.6826674754287908e-02    8    1    6    4
 3.0951100507484120e-15    8    1    6    5
 4.9760352107158845e-15    8    1    6    6
-5.4499733535728381e-10    8    1    7    1
-1.2831371086237889e-12    8    1    7    2
 5.4209141342040746e-10    8    1    7    3
-5.0772483307927246e-10    8    1    7    4
 1.3749138860789353e-15    8    1    7    5
-1.7689828577566903e-15    8    1    7    6
-1.6025348815611604e-15    8    1    7    7
 5.0140101355951490e-02    8    1    8    1
-8.7701679405745852e-16    8    2    1    1
 1.2604758901209899e-19    8    2    2    1
 6.6452557468487746e-15    8    2    2    2
-2.6131281368418338e-17    8    2    3    1
-2.1901576974647877e-16    8    2    3    2
-5.3310239289248491e-16    8    2    3    3
-6.9031620916089567e-18    8    2    4    1
-5.7442395896169709e-16    8    2    4    2
-1.6848272803344811e-16    8    2    4    3
-8.2516720181813503e-16    8    2    4    4
 3.8897635118731386e-12    8    2    5    1
-2.1479427120179483e-11    8    2    5    2
 8.4894790780349203e-11    8    2    5    3
-6.1560932036892010e-11    8    2    5    4
-7.6359691102102069e-16    8    2    5    5
 1.5003252971744699e-04    8    2    6    1
 8.3822710830654948e-04    8    2    6    2
-7.3458167969943301e-04    8    2    6    3
 2.6086687762581500e-03    8    2    6    4
-2.0343912028369077e-16    8    2    6    5
-1.1611477409020289e-15    8    2    6    6
-6.1929115617019737e-12    8    2    7    1
 4.2723092889507583e-11    8    2    7    2
 8.9316897960568004e-11    8    2    7    3
-2.9073774274505383e-11    8    2    7    4
 1.1024731076995974e-16    8    2    7    5
-1.6121210973765731e-16    8    2    7    6
-6.1907739793072897e-16    8    2    7    7
-1.9099979642927728e-04    8    2    8    1
 1.7986203625293192e-03    8    2    8    2
 1.1630571167290472e-15    8    3    1    1
 9.0456619046173227e-19    8    3    2    1
-2.8426679228277580e-15    8    3    2    2
-6.9909104987503486e-16    8    3    3    1
-3.8416731416075090e-17    8    3    3    2
 6.2765113275784712e-15    8    3    3    3
 1.9028920374858025e-15    8    3    4    1
 2.1354964889320089e-18    8    3    4    2
-4.1300387295856041e-15    8    3    4    3
 4.5257138714837275e-15    8    3    4    4
-4.2185809393615549e-10    8    3    5    1
 2.7341433794431010e-11    8    3    5    2
 1.4802827727291237e-09    8    3    5    3
-1.0531862317226976e-09    8    3    5    4
 1.0799113549463849e-15    8    3    5    5
 1.9048953949467193e-02    8    3    6    1
 3.3834597999680532e-04    8    3    6    2
-4.7773007065603966e-02    8    3    6    3
 2.6806864804764970e-02    8    3    6    4
-3.1794075454690655e-15    8    3    6    5
-6.0139935382977643e-15    8    3    6    6
 5.1417339952306476e-10    8    3    7    1
 8.5983377602953844e-11    8    3    7    2
-1.6091153719549621e-09    8    3    7    3
 1.5882558727496450e-09    8    3    7    4
-1.2733507024594017e-16    8    3    7    5
 1.5620144442757082e-15    8    3    7    6
 4.6790340887069803e-16    8    3    7    7
-2.1862896439722265e-02    8    3    8    1
 4.4369578074515855e-04    8    3    8    2
 3.8348589962428993e-02    8    3    8    3
-1.4262901321239560e-15    8    4    1    1
-2.1804138126629786e-19    8    4    2    1
-3.9060858050134196e-15    8    4    2    2
 1.8767106133331534e-15    8    4    3    1
-5.7258801745254678e-17    8    4    3    2
-5.5063393134946100e-15    8    4    3    3
-6.3429256256638684e-17    8    4    4    1
-9.5309237346591262e-18    8    4    4    2
 2.4586639728191973e-15    8    4    4    3
-1.9380754499996152e-15    8    4    4    4
 4.1065201037939661e-10    8    4    5    1
-4.9009363430111560e-11    8    4    5    2
-8.2565837548597649e-10    8    4    5    3
 6.6199964566466119e-10    8    4    5    4
-1.1497556410151977e-15    8    4    5    5
-1.5032047776615863e-02    8    4    6    1
 7.6627804188682258e-04    8    4    6    2
 1.9961035650647892e-02    8    4    6    3
-2.7051914502625431e-02    8    4    6    4
 1.6839903830228056e-15    8    4    6    5
 2.9047263079622615e-15    8    4    6    6
-5.0455263437008742e-10    8    4    7    1
-4.9173884873839289e-11    8    4    7    2
 1.5886034091952490e-09    8    4    7    3
-1.7313577401365007e-09    8    4    7    4
-3.4327830183362492e-16    8    4    7    5
-1.7607184209449895e-15    8    4    7    6
-1.5064134584779816e-15    8    4    7    7
 1.7054519422977019e-02    8    4    8    1
 1.5779236108653437e-03    8    4    8    2
-1.5099092894470267e-02    8    4    8    3
 3.2373299383821830e-02    8    4    8    4
 4.7495898316892871e-09    8    5    1    1
 2.2149737958590732e-12    8    5    2    1
-3.6954717992153528e-11    8    5    2    2
-6.7072597322235252e-12    8    5    3    1
 1.0596497189267899e-11    8    5    3    2
 2.7597836420279675e-09    8    5    3    3
 1.9079819480197654e-11    8    5    4    1
 2.3863046872758790e-11    8    5    4    2
-6.5249474711326183e-10    8    5    4    3
 2.3434309804406290e-09    8    5    4    4
 1.5363447806732131e-15    8    5    5    1
-8.1289337879238391e-17    8    5    5    2
-7.2759207408764497e-16    8    5    5    3
 4.2959018918218308e-16    8    5    5    4
 2.0591779640452878e-09    8    5    5    5
 1.7950942147551744e-15    8    5    6    1
-3.8692174387225097e-17    8    5    6    2
-2.6191020570571772e-15    8    5    6    3
 1.8763883164041140e-15    8    5    6    4
-1.3565493378366347e-02    8    5    6    5
 1.9445811463705476e-09    8    5    6    6
-1.7383059405278073e-15    8    5    7    1
-1.5798381834964928e-16    8    5    7    2
 1.5333838382940232e-15    8    5    7    3
-1.7295976128434477e-15    8    5    7    4
-1.3087429790677038e-09    8    5    7    5
 1.8162046773843955e-02    8    5    7    6
 1.7877619543268948e-09    8    5    7    7
-2.0427015781151111e-15    8    5    8    1
-8.9376693872719456e-17    8    5    8    2
 1.8092243844712390e-15    8    5    8    3
-1.5701628691008517e-15    8    5    8    4
 1.8162048432522015e-02    8    5    8    5
-5.8751970303235179e-01    8    6    1    1
-2.2281436738713644e-04    8    6    2    1
-8.7224420467702868e-04    8    6    2    2
-9.3237152302894644e-03    8    6    3    1
 1.8449045305492216e-05    8    6    3    2
-2.5364560396426455e-01    8    6    3    3
 9.5442701129524014e-03    8    6    4    1
-1.9683374889717083e-03    8    6    4    2
 1.3611755310892671e-02    8    6    4    3
-2.1999367238192544e-01    8    6    4    4
-9.1999509932838183e-16    8    6    5    1
 1.2459715194787313e-16    8    6    5    2
-2.2419642434041374e-15    8    6    5    3
 5.2861477071673472e-16    8    6    5    4
-2.1760916040368811e-01    8    6    5    5
 2.7892986239300901e-15    8    6    6    1
 2.8123558861095597e-17    8    6    6    2
-7.3691362557578819e-15    8    6    6    3
 4.5077917252204506e-15    8    6    6    4
 1.3215543369875506e-10    8    6    6    5
-2.4474012109274854e-01    8    6    6    6
 1.3982315103327957e-15    8    6    7    1
 1.1409540556303935e-16    8    6    7    2
-1.2189721710133901e-16    8    6    7    3
-3.4894044115850646e-16    8    6    7    4
 1.4539139644477672e-01    8    6    7    5
-1.2905268802007659e-09    8    6    7    6
-1.7150404807095940e-01    8    6    7    7
-2.8648809833671498e-15    8    6    8    1
-1.0145910872115427e-16    8    6    8    2
 3.9313589623910802e-15    8    6    8    3
-4.0129069048129048e-15    8    6    8    4
-1.2156823562664920e-09    8    6    8    5
 1.8171547383777090e-01    8    6    8    6
-7.3359098472752080e-09    8    7    1    1
-3.6091387597803144e-12    8    7    2    1
 5.3006281329806023e-10    8    7    2    2
-8.1210180758412384e-12    8    7    3    1
 2.7950863922324928e-11    8    7    3    2
-5.7471922014207168e-09    8    7    3    3
 2.8591571217473212e-11    8    7    4    1
-5.8566215424194869e-11    8    7    4    2
 2.2655174190080731e-09    8    7    4    3
-4.8268610030219806e-09    8    7    4    4
-2.1191118705947722e-15    8    7    5    1
-1.8285411260366029e-16    8    7    5    2
 5.0933293441166576e-15    8    7    5    3
-5.1148901853063097e-15    8    7    5    4
-3.1682125381501643e-09    8    7    5    5
-2.1555114592125964e-15    8    7    6    1
-1.8639850439360778e-16    8    7    6    2
 5.1815617697997818e-15    8    7    6    3
-5.2029666043139285e-15    8    7    6    4
 2.7239638018202679e-02    8    7    6    5
-3.1648106356091325e-09    8    7    6    6
 2.4619318834975385e-15    8    7    7    1
-3.1060201166438177e-16    8    7    7    2
-2.0088979301213433e-15    8    7    7    3
 5.1347504333560675e-16    8    7    7    4
 1.9550966674974071e-09    8    7    7    5
-8.2908237381501271e-03    8    7    7    6
-2.5366862052118730e-09    8    7    7    7
 2.5051268982970449e-15    8    7    8    1
-3.1655129349711629e-16    8    7    8    2
-2.0452029574719608e-15    8    7    8    3
 5.2559830055036706e-16    8    7    8    4
-8.2908255773842445e-03    8    7    8    5
 1.9287066197348186e-09    8    7    8    6
 2.5320616177399159e-02    8    7    8    7
 1.0453147639000639e+00    8    8    1    1
 2.4897859255640158e-04    8    8    2    1
 3.3425583099912870e-01    8    8    2    2
 1.2592781054412475e-02    8    8    3    1
 1.3977576584658792e-03    8    8    3    2
 6.5003191408529437e-01    8    8    3    3
-1.0509024101764686e-02    8    8    4    1
 7.2926075616151394e-03    8    8    4    2
-2.0093973429972323e-02    8    8    4    3
 6.5513300127600538e-01    8    8    4    4
 1.0928298331976347e-15    8    8    5    1
-4.1247183204429319e-16    8    8    5    2
 2.4482906886565277e-15    8    8    5    3
-2.9508898498898022e-15    8    8    5    4
 6.2297538162997146e-01    8    8    5    5
-3.4451559069919831e-15    8    8    6    1
-7.6115340149540184e-16    8    8    6    2
 1.2818527234827986e-14    8    8    6    3
-1.3195815379500078e-14    8    8    6    4
 2.3631938939296186e-10    8    8    6    5
 6.7745464700307290e-01    8    8    6    6
-1.6167870886775732e-15    8    8    7    1
-6.3349336090932031e-16    8    8    7    2
 4.4796465365625792e-16    8    8    7    3
-1.5265112587879332e-15    8    8    7    4
-1.7150408760855604e-01    8    8    7    5
 1.9450888160057095e-09    8    8    7    6
 5.4702511971697720e-01    8    8    7    7
 3.6703482312906219e-15    8    8    8    1
-1.2311972262050739e-15    8    8    8    2
-4.6259981121101881e-15    8    8    8    3
 5.3552754624080829e-16    8    8    8    4
 1.6719918768953759e-09    8    8    8    5
-1.8808570609512790e-01    8    8    8    6
-2.5366862861812459e-09    8    8    8    7
 5.9766637762797359e-01    8    8    8    8
 3.3243917876365275e-01    9    1    1    1
 1.6994168427055486e-04    9    1    2    1
-4.9701254151230468e-03    9    1    2    2
 1.6074453459529611e-02    9    1    3    1
-1.7023248625731540e-04    9    1    3    2
 4.3733155865617275e-02    9    1    3    3
-5.6582907761419908e-02    9    1    4    1
-4.2394450897058702e-04    9    1    4    2
 6.2885090855710902e-04    9    1    4    3
-2.0568419508572185e-02    9    1    4    4
 1.2352162318766455e-15    9    1    5    1
 6.4764882941220891e-18    9    1    5    2
 3.7216532064784644e-15    9    1    5    3