 &FCI NORB=20,NELEC=10,MS2=0,
  ORBSYM= 1,1,1,1,1,1,1,1,1,1,1,1,1,1,1,1,1,1,1,1,
  ISYM=1
 &END
 4.1428899051212786e+00    1    1    1    1
-2.0220434353011346e-01    2    1    1    1
 3.0939575909467103e-02    2    1    2    1
 8.9122855239741050e-01    2    2    1    1
 1.4207464840710653e-02    2    2    2    1
 7.4415061391575010e-01    2    2    2    2
 1.4633020382906242e-01    3    1    1    1
-7.2336797692255242e-03    3    1    2    1
 9.8506306953371203e-03    3    1    2    2
 1.9956066818808404e-02    3    1    3    1
-2.4259889131484507e-02    3    2    1    1
-2.4799336232219043e-03    3    2    2    1
-2.5427544405054719e-02    3    2    2    2
 4.2201100545909177e-03    3    2    3    1
 3.3326306591391130e-02    3    2    3    2
 7.7040420093209372e-01    3    3    1    1
-8.8377970177894449e-03    3    3    2    1
 5.1452463522847913e-01    3    3    2    2
-1.3172670239072103e-02    3    3    3    1
-3.3082742058862788e-02    3    3    3    2
 7.5091157609256531e-01    3    3    3    3
-1.4534036079018536e-01    4    1    1    1
 7.1640825735014508e-03    4    1    2    1
-9.8172576721911962e-03    4    1    2    2
-5.7997191294776136e-03    4    1    3    1
 4.7139574399290753e-03    4    1    3    2
-5.6074368298268170e-03    4    1    3    3
 1.9886250678824238e-02    4    1    4    1
 2.3740653397582068e-02    4    2    1    1
 2.4440675982626420e-03    4    2    2    1
 2.4911938119009894e-02    4    2    2    2
 4.7024476098247014e-03    4    2    3    1
 5.4400332729033557e-03    4    2    3    2
-1.3744790140519091e-02    4    2    3    3
 4.3038863591466974e-03    4    2    4    1
 3.3439975692217377e-02    4    2    4    2
-2.5500683545124348e-02    4    3    1    1
 4.6900892073403946e-03    4    3    2    1
 6.7786890943371961e-03    4    3    2    2
 3.0973264204277270e-03    4    3    3    1
-3.3284058144270683e-03    4    3    3    2
-2.6845611752206424e-02    4    3    3    3
-3.1812214464102899e-03    4    3    4    1
 3.0499409182404560e-03    4    3    4    2
 2.4099355792280473e-02    4    3    4    3
 7.7020106822767009e-01    4    4    1    1
-8.7652502680441013e-03    4    4    2    1
 5.1476931701655615e-01    4    4    2    2
 5.5847670716743505e-03    4    4    3    1
 1.3422463001614197e-02    4    4    3    2
 4.8150124459836940e-01    4    4    3    3
 1.3171645848383482e-02    4    4    4    1
 3.3600385730548257e-02    4    4    4    2
-2.7498706448950267e-02    4    4    4    3
 7.5022943270736964e-01    4    4    4    4
-1.4534035901750345e-01    5    1    1    1
 7.1640823752225470e-03    5    1    2    1
-9.8172579026051237e-03    5    1    2    2
-5.7997190758596572e-03    5    1    3    1
 4.7139574006123250e-03    5    1    3    2
-5.6074365122934918e-03    5    1    3    3
 5.7637694834285587e-03    5    1    4    1
-4.6780456115695264e-03    5    1    4    2
 2.7886265371808556e-03    5    1    4    3
-5.5562615434028581e-03    5    1    4    4
 1.9886250623081223e-02    5    1    5    1
 2.3740650354018823e-02    5    2    1    1
 2.4440673864254197e-03    5    2    2    1
 2.4911934832657467e-02    5    2    2    2
 4.7024474705462255e-03    5    2    3    1
 5.4400338467432063e-03    5    2    3    2
-1.3744789429064619e-02    5    2    3    3
-4.6780455020478022e-03    5    2    4    1
-5.4710206441153739e-03    5    2    4    2
 1.3055141679890889e-02    5    2    4    3
-1.3510174050039422e-02    5    2    4    4
 4.3038868137316747e-03    5    2    5    1
 3.3439976527183127e-02    5    2    5    2
-2.5500682308866453e-02    5    3    1    1
 4.6900891253155970e-03    5    3    2    1
 6.7786897865168552e-03    5    3    2    2
 3.0973266882262807e-03    5    3    3    1
-3.3284047128162033e-03    5    3    3    2
-2.6845621426768440e-02    5    3    3    3
 2.7886265018339886e-03    5    3    4    1
 1.3055141665938470e-02    5    3    4    2
-1.6172313016078413e-05    5    3    4    3
 1.9804101373261163e-03    5    3    4    4
-3.1812213012435879e-03    5    3    5    1
 3.0499414958675302e-03    5    3    5    2
 2.4099355910971464e-02    5    3    5    3
 2.5336534861402540e-02    5    4    1    1
-4.6653851690725426e-03    5    4    2    1
-6.7852246666122796e-03    5    4    2    2
 2.7884535349508226e-03    5    4    3    1
 1.3053359692350820e-02    5    4    3    2
-2.1153642153479493e-03    5    4    3    3
 3.1513208725291422e-03    5    4    4    1
-3.0979043191455805e-03    5    4    4    2
-1.4623924806874628e-04    5    4    4    3
 2.7087578346514318e-02    5    4    4    4
 3.1513215644165078e-03    5    4    5    1
-3.0979016330519257e-03    5    4    5    2
-1.4623985842227127e-04    5    4    5    3
 2.4120683405165544e-02    5    4    5    4
 7.7020106800902255e-01    5    5    1    1
-8.7652498422261891e-03    5    5    2    1
 5.1476931904343093e-01    5    5    2    2
 5.5847672733925014e-03    5    5    3    1
 1.3422463721910761e-02    5    5    3    2
 4.8150124532643762e-01    5    5    3    3
-5.5562608506777847e-03    5    5    4    1
-1.3510170769464262e-02    5    5    4    2
 1.9804095061779188e-03    5    5    4    3
 4.8160022941887992e-01    5    5    4    4
 1.3171645779913159e-02    5    5    5    1
 3.3600389787427139e-02    5    5    5    2
-2.7498695654245439e-02    5    5    5    3
 2.7087590041899003e-02    5    5    5    4
 7.5022942984279029e-01    5    5    5    5
-1.8178810532286677e-01    6    1    1    1
 7.1875844284304494e-03    6    1    2    1
-1.4965369693701691e-02    6    1    2    2
-5.6023697314852051e-03    6    1    3    1
 7.1461293240780615e-03    6    1    3    2
-9.8040888060123080e-03    6    1    3    3
 5.5631585408708745e-03    6    1    4    1
-7.0988188744029040e-03    6    1    4    2
 4.5749032400862633e-03    6    1    4    3
-9.7298513417822634e-03    6    1    4    4
 2.8906196995055027e-02    6    1    5    1
 7.1947282630595395e-03    6    1    5    2
-4.8658419072722166e-03    6    1    5    3
 4.8156617763362016e-03    6    1    5    4
 2.0433312079946399e-02    6    1    5    5
 4.2968934815444941e-02    6    1    6    1
-2.6533071632751427e-03    6    2    1    1
 1.2467703986365085e-03    6    2    2    1
-2.0328793169672632e-03    6    2    2    2
 4.5052423884561653e-03    6    2    3    1
 8.2105553701277856e-03    6    2    3    2
-1.6766279521680038e-02    6    2    3    3
-4.4912160142918361e-03    6    2    4    1
-8.2396970223644547e-03    6    2    4    2
 9.9013280144892701e-03    6    2    4    3
-1.6681975115993446e-02    6    2    4    4
 5.7300328145763486e-03    6    2    5    1
 2.3571827339967908e-02    6    2    5    2
-1.4187334169222722e-03    6    2    5    3
 1.3487599971432639e-03    6    2    5    4
 2.7602767543968534e-02    6    2    5    5
 9.3962039087775850e-03    6    2    6    1
 2.5024997939649692e-02    6    2    6    2
 1.0343331022715650e-03    6    3    1    1
 4.3385231026634684e-03    6    3    2    1
 1.4941747873079576e-02    6    3    2    2
 2.1223604149385941e-03    6    3    3    1
-4.9517215337643947e-03    6    3    3    2
-2.6775713365268536e-04    6    3    3    3
 3.0120371092673490e-03    6    3    4    1
 1.0510374351003748e-02    6    3    4    2
-3.8228818316611186e-03    6    3    4    3
 1.2891360007154268e-02    6    3    4    4
-4.2497473052181952e-03    6    3    5    1
-2.0036161706758538e-03    6    3    5    2
 1.6925422503616779e-02    6    3    5    3
-1.5972038079769097e-03    6    3    5    4
-2.4596398960354860e-02    6    3    5    5
-6.7072411085476128e-03    6    3    6    1
-3.3606313576125058e-03    6    3    6    2
 1.8041791833080752e-02    6    3    6    3
-1.1737172529090142e-03    6    4    1    1
-4.3205268408274058e-03    6    4    2    1
-1.4999553729382172e-02    6    4    2    2
 3.0081791705489974e-03    6    4    3    1
 1.0512924352541047e-02    6    4    3    2
-1.3003571146019278e-02    6    4    3    3
 2.1681336192071444e-03    6    4    4    1
-4.8433590123854470e-03    6    4    4    2
 3.7198903765854477e-03    6    4    4    3
 2.5410273390909390e-04    6    4    4    4
 4.2261656427887194e-03    6    4    5    1
 1.9714185178352477e-03    6    4    5    2
-1.6306174145710201e-03    6    4    5    3
 1.6909751961099805e-02    6    4    5    4
 2.4523622436293403e-02    6    4    5    5
 6.6689829874213916e-03    6    4    6    1
 3.3271650021304967e-03    6    4    6    2
-3.2250080782671360e-03    6    4    6    3
 1.8058290261029866e-02    6    4    6    4
 3.7357684983323280e-01    6    5    1    1
-7.3232805196959050e-03    6    5    2    1
 1.4415218442759911e-01    6    5    2    2
 5.0217567209460690e-03    6    5    3    1
-3.5474760703252048e-03    6    5    3    2
 1.2530009704047623e-01    6    5    3    3
-4.9852267499186798e-03    6    5    4    1
 3.4779825203473010e-03    6    5    4    2
-4.5255881041470214e-03    6    5    4    3
 1.2534037730203601e-01    6    5    4    4
 5.0268321522536925e-03    6    5    5    1
 9.8497174226862549e-03    6    5    5    2
-1.1407871060479913e-02    6    5    5    3
 1.1461536822516121e-02    6    5    5    4
 6.2254887505345233e-02    6    5    5    5
 6.8502764892448232e-03    6    5    6    1
 1.9540541153184108e-04    6    5    6    2
 1.1927987758083196e-03    6    5    6    3
-1.3081928624850640e-03    6    5    6    4
 1.9507697025858547e-01    6    5    6    5
 9.0067483344747878e-01    6    6    1    1
-1.2213827734517881e-02    6    6    2    1
 5.2668611990389691e-01    6    6    2    2
 8.4763163201427103e-03    6    6    3    1
 8.3658725593371390e-03    6    6    3    2
 4.8582873546614325e-01    6    6    3    3
-8.4250777643134073e-03    6    6    4    1
-8.4852647396858796e-03    6    6    4    2
-9.3420062862313103e-04    6    6    4    3
 4.8593205422657382e-01    6    6    4    4
 1.0376278140142187e-02    6    6    5    1
 2.8279255505680764e-02    6    6    5    2
-2.2220734117165634e-02    6    6    5    3
 2.1850809710243786e-02    6    6    5    4
 7.3544929636410417e-01    6    6    5    5
 1.7036879251237771e-02    6    6    6    1
 2.4769999039411541e-02    6    6    6    2
-2.2188454045648117e-02    6    6    6    3
 2.2151478606267112e-02    6    6    6    4
 5.5018241136190957e-02    6    6    6    5
 7.7781490320559288e-01    6    6    6    6
 1.8178811098578954e-01    7    1    1    1
-7.1875845061739694e-03    7    1    2    1
 1.4965370406218009e-02    7    1    2    2
 5.6023694665728397e-03    7    1    3    1
-7.1461297080153020e-03    7    1    3    2
 9.8040903702391567e-03    7    1    3    3
-2.8906197986853004e-02    7    1    4    1
-7.1947280379657114e-03    7    1    4    2
 4.8658422471694884e-03    7    1    4    3
-2.0433313199708508e-02    7    1    4    4
-5.5631583672189934e-03    7    1    5    1
 7.0988190864365907e-03    7    1    5    2
-4.5749034595511722e-03    7    1    5    3
-4.8156609893789844e-03    7    1    5    4
 9.7298512071927121e-03    7    1    5    5
-4.2942666802642387e-03    7    1    6    1
 6.8307879424015063e-03    7    1    6    2
-4.8581799952683432e-03    7    1    6    3
-3.3145905995936439e-03    7    1    6    4
 7.7315349315980608e-03    7    1    6    5
 1.3551417140462822e-02    7    1    6    6
 4.2968937927985076e-02    7    1    7    1
 2.6533089456482976e-03    7    2    1    1
-1.2467701341486485e-03    7    2    2    1
 2.0328835261490949e-03    7    2    2    2
-4.5052422823095356e-03    7    2    3    1
-8.2105549827742406e-03    7    2    3    2
 1.6766278502120872e-02    7    2    3    3
-5.7300329601181295e-03    7    2    4    1
-2.3571826356712056e-02    7    2    4    2
 1.4187341648136385e-03    7    2    4    3
-2.7602771040535382e-02    7    2    4    4
 4.4912163248334025e-03    7    2    5    1
 8.2396991949488397e-03    7    2    5    2
-9.9013274970547929e-03    7    2    5    3
-1.3487589764531623e-03    7    2    5    4
 1.6681976634578783e-02    7    2    5    5
 6.8307881055213685e-03    7    2    6    1
 7.9408094810832323e-03    7    2    6    2
-9.0758606867828162e-03    7    2    6    3
 2.1549941641508088e-03    7    2    6    4
 4.7652654395482193e-03    7    2    6    5
 1.4205707739300438e-02    7    2    6    6
 9.3962047670992158e-03    7    2    7    1
 2.5024999240716109e-02    7    2    7    2
-1.0343377680612571e-03    7    3    1    1
-4.3385228461241968e-03    7    3    2    1
-1.4941747510522992e-02    7    3    2    2
-2.1223608389775912e-03    7    3    3    1
 4.9517186803831655e-03    7    3    3    2
 2.6776821266087712e-04    7    3    3    3
 4.2497463855659338e-03    7    3    4    1
 2.0036131725953235e-03    7    3    4    2
-1.6925420411203002e-02    7    3    4    3
 2.4596383783273803e-02    7    3    4    4
-3.0120370182114388e-03    7    3    5    1
-1.0510373433261475e-02    7    3    5    2
 3.8228804528316366e-03    7    3    5    3
 1.5972010885746107e-03    7    3    5    4
-1.2891360046583776e-02    7    3    5    5
-4.8581795895166098e-03    7    3    6    1
-9.0758601498011435e-03    7    3    6    2
 4.8473504841730630e-03    7    3    6    3
-1.9928133208079084e-03    7    3    6    4
-2.6316317610774842e-03    7    3    6    5
-1.0993706741109128e-02    7    3    6    6
-6.7072397824554176e-03    7    3    7    1
-3.3606286646807810e-03    7    3    7    2
 1.8041785959597909e-02    7    3    7    3
-3.7357686090420111e-01    7    4    1    1
 7.3232807756100160e-03    7    4    2    1
-1.4415218804394420e-01    7    4    2    2
-5.0217580536983837e-03    7    4    3    1
 3.5474730811442829e-03    7    4    3    2
-1.2530008989124636e-01    7    4    3    3
-5.0268327851694869e-03    7    4    4    1
-9.8497219684389944e-03    7    4    4    2
 1.1407862527782390e-02    7    4    4    3
-6.2254897108233981e-02    7    4    4    4
 4.9852264786528723e-03    7    4    5    1
-3.4779841838681147e-03    7    4    5    2
 4.5255871219610343e-03    7    4    5    3
-1.1461545055959869e-02    7    4    5    4
-1.2534038515030013e-01    7    4    5    5
 7.7315337557534959e-03    7    4    6    1
 4.7652627656017176e-03    7    4    6    2
-2.6316296762050467e-03    7    4    6    3
-5.6197777106751648e-03    7    4    6    4
-7.3525505799714383e-02    7    4    6    5
-1.4390636206532914e-01    7    4    6    6
 6.8502774400483702e-03    7    4    7    1
 1.9540454097774016e-04    7    4    7    2
 1.1927955444958659e-03    7    4    7    3
 1.9507697151071421e-01    7    4    7    4
 1.1737219621035149e-03    7    5    1    1
 4.3205270741306498e-03    7    5    2    1
 1.4999557471503295e-02    7    5    2    2
-3.0081791163571129e-03    7    5    3    1
-1.0512924173831479e-02    7    5    3    2
 1.3003572736800360e-02    7    5    3    3
-4.2261661297146062e-03    7    5    4    1
-1.9714193508942861e-03    7    5    4    2
 1.6306189035344024e-03    7    5    4    3
-2.4523631197723890e-02    7    5    4    4
-2.1681333774490196e-03    7    5    5    1
 4.8433614268155682e-03    7    5    5    2
-3.7198914293060147e-03    7    5    5    3
-1.6909751875416532e-02    7    5    5    4
-2.5409124689506225e-04    7    5    5    5
-3.3145898306073873e-03    7    5    6    1
 2.1549965431392828e-03    7    5    6    2
-1.9928146663089068e-03    7    5    6    3
-1.4491763086706839e-02    7    5    6    4
-5.6197784894995847e-03    7    5    6    5
 1.1186053959377658e-03    7    5    6    6
 6.6689843217361214e-03    7    5    7    1
 3.3271674190215412e-03    7    5    7    2
-3.2250073241603372e-03    7    5    7    3
-1.3081962465080930e-03    7    5    7    4
 1.8058294472382972e-02    7    5    7    5
 2.6369561214177047e-02    7    6    1    1
 4.5790365424708528e-03    7    6    2    1
 2.2952979925534366e-02    7    6    2    2
-3.4172563246425086e-03    7    6    3    1
-1.2091391744348224e-02    7    6    3    2
 1.9611591941945308e-02    7    6    3    3
-4.0822546765615511e-03    7    6    4    1
 1.9345790043152448e-03    7    6    4    2
-1.5499382682776508e-03    7    6    4    3
-9.6617490381718015e-03    7    6    4    4
-4.0822541085277202e-03    7    6    5    1
 1.9345800370839761e-03    7    6    5    2
-1.5499398899577550e-03    7    6    5    3
-1.8847041987269386e-02    7    6    5    4
-9.6617522915753741e-03    7    6    5    5
-6.3661781362688201e-03    7    6    6    1
-8.4145733018655116e-04    7    6    6    2
 3.2011065883980668e-04    7    6    6    3
-1.8608716278765553e-02    7    6    6    4
 3.5175469532661972e-03    7    6    6    5
-4.6522680061297792e-03    7    6    6    6
 6.3661795415086743e-03    7    6    7    1
 8.4145938113962596e-04    7    6    7    2
-3.2011016090209294e-04    7    6    7    3
-3.5175374626919402e-03    7    6    7    4
 1.8608717346404111e-02    7    6    7    5
 2.2723924668894755e-02    7    6    7    6
 9.0067486460924118e-01    7    7    1    1
-1.2213828440834133e-02    7    7    2    1
 5.2668612951808347e-01    7    7    2    2
 8.4763181605372832e-03    7    7    3    1
 8.3658743076279411e-03    7    7    3    2
 4.8582873475620414e-01    7    7    3    3
 1.0376278370895144e-02    7    7    4    1
 2.8279252837445014e-02    7    7    4    2
-2.2220742672044186e-02    7    7    4    3
 7.3544930082493953e-01    7    7    4    4
-8.4250777422094063e-03    7    7    5    1
-8.4852642807263651e-03    7    7    5    2
-9.3419997021931193e-04    7    7    5    3
 2.1850801260786364e-02    7    7    5    4
 4.8593206902227915e-01    7    7    5    5
-1.3551415863266775e-02    7    7    6    1
-1.4205703854952158e-02    7    7    6    2
 1.0993705917437594e-02    7    7    6    3
-1.1185906177842004e-03    7    7    6    4
 1.4390636075405761e-01    7    7    6    5
 5.0254689007876141e-01    7    7    6    6
-1.7036880425037971e-02    7    7    7    1
-2.4770002978740824e-02    7    7    7    2
 2.2188435342106703e-02    7    7    7    3
-5.5018267396477624e-02    7    7    7    4
-2.2151489133050348e-02    7    7    7    5
-4.6522650126960569e-03    7    7    7    6
 7.7781490800138398e-01    7    7    7    7
 1.8264627923072299e-01    8    1    1    1
-7.2028856904616141e-03    8    1    2    1
 1.5062930550665602e-02    8    1    2    2
 2.9012324053444491e-02    8    1    3    1
 7.0971506658495925e-03    8    1    3    2
-2.0527428371281152e-02    8    1    3    3
-5.5539297916316760e-03    8    1    4    1
 7.1540904223144778e-03    8    1    4    2
 4.7475954776113145e-03    8    1    4    3
 9.8107974462969885e-03    8    1    4    4
-5.5539304347130966e-03    8    1    5    1
 7.1540898141025299e-03    8    1    5    2
 4.7475959555115087e-03    8    1    5    3
 4.5862180113044665e-03    8    1    5    4
 9.8107968699632994e-03    8    1    5    5
-4.2669943782820572e-03    8    1    6    1
 6.8677580708331213e-03    8    1    6    2
 3.2555149299520339e-03    8    1    6    3
 4.8632187985869092e-03    8    1    6    4
 7.8019510588335844e-03    8    1    6    5
 1.3661522490454199e-02    8    1    6    6
 4.2669927103301331e-03    8    1    7    1
-6.8677583647714690e-03    8    1    7    2
-3.2555156891249594e-03    8    1    7    3
-7.8019537626037513e-03    8    1    7    4
-4.8632187962766521e-03    8    1    7    5
-5.5793219672153147e-03    8    1    7    6
 1.3661526313864398e-02    8    1    7    7
 4.3173105410724930e-02    8    1    8    1
 2.9879703514932073e-03    8    2    1    1
-1.2182585075502794e-03    8    2    2    1
 2.5589398451847287e-03    8    2    2    2
 5.7003297809696228e-03    8    2    3    1
 2.3359560069527344e-02    8    2    3    2
-2.7915035281685319e-02    8    2    3    3
 4.5020467802025432e-03    8    2    4    1
 8.3061858809585342e-03    8    2    4    2
 1.2248506848113758e-03    8    2    4    3
 1.6763969579126164e-02    8    2    4    4
 4.5020464435952369e-03    8    2    5    1
 8.3061853206946121e-03    8    2    5    2
 1.2248502048784024e-03    8    2    5    3
 9.8112684342691568e-03    8    2    5    4
 1.6763967409403540e-02    8    2    5    5
 6.8418111191996360e-03    8    2    6    1
 7.9168640970214525e-03    8    2    6    2
-2.2328312247677251e-03    8    2    6    3
 9.0037159182345117e-03    8    2    6    4
 4.8846311321002565e-03    8    2    6    5
 1.4319337926762630e-02    8    2    6    6
-6.8418119303955364e-03    8    2    7    1
-7.9168640787484947e-03    8    2    7    2
 2.2328280418197730e-03    8    2    7    3
-4.8846353070197100e-03    8    2    7    4
-9.0037157676794658e-03    8    2    7    5
-1.0002536251346353e-02    8    2    7    6
 1.4319342346511861e-02    8    2    7    7
 9.3918392068121602e-03    8    2    8    1
 2.4973030856852360e-02    8    2    8    2
 3.7416442402041589e-01    8    3    1    1
-7.3785859773235233e-03    8    3    2    1
 1.4418743221021163e-01    8    3    2    2
-5.0806224988571283e-03    8    3    3    1
-1.0390245580017428e-02    8    3    3    2
 6.3168829110574573e-02    8    3    3    3
-5.0523404489979324e-03    8    3    4    1
 3.3367215528189919e-03    8    3    4    2
-1.1593725839720632e-02    8    3    4    3
 1.2515935356331875e-01    8    3    4    4
-5.0523417736020411e-03    8    3    5    1
 3.3367167256806028e-03    8    3    5    2
-1.1593714555615604e-02    8    3    5    3
 4.3707656310524928e-03    8    3    5    4
 1.2515934267812970e-01    8    3    5    5
-7.8323995548304562e-03    8    3    6    1
-4.9158727708850346e-03    8    3    6    2
-5.5358467848910875e-03    8    3    6    3
-2.7676635302338573e-03    8    3    6    4
 7.3606020306018843e-02    8    3    6    5
 1.4381381162294382e-01    8    3    6    6
 7.8323979973294999e-03    8    3    7    1
 4.9158692300877525e-03    8    3    7    2
 5.5358429462426867e-03    8    3    7    3
-7.3606022319354980e-02    8    3    7    4
 2.7676623824897709e-03    8    3    7    5
 8.5423649830927342e-03    8    3    7    6
 1.4381382419886296e-01    8    3    7    7
-6.9811926707815932e-03    8    3    8    1
-1.0597678419887895e-05    8    3    8    2
 1.9538904608102445e-01    8    3    8    3
 1.5849757781851216e-03    8    4    1    1
 4.3258340770046515e-03    8    4    2    1
 1.5126706057234814e-02    8    4    2    2
 4.1818876584735877e-03    8    4    3    1
 1.7796834719966607e-03    8    4    3    2
-2.4398056219123328e-02    8    4    3    3
-2.1585058355904200e-03    8    4    4    1
 4.8921272374334501e-03    8    4    4    2
 1.6730434676159769e-02    8    4    4    3
 1.0532792123831899e-05    8    4    4    4
 2.9873379995093616e-03    8    4    5    1
 1.0410960942274951e-02    8    4    5    2
 1.4662342703836238e-03    8    4    5    3
 3.7222520846786739e-03    8    4    5    4
 1.2912575397031587e-02    8    4    5    5
 4.8177997506551190e-03    8    4    6    1
 8.9800811620740686e-03    8    4    6    2
-2.0542771143141833e-03    8    4    6    3
 4.7270210090732375e-03    8    4    6    4
 2.7677209711564001e-03    8    4    6    5
 1.1072236707953964e-02    8    4    6    6
 3.3021737180793944e-03    8    4    7    1
-2.1875206858465498e-03    8    4    7    2
-1.4408269617398299e-02    8    4    7    3
 5.4919335160014387e-03    8    4    7    4
-2.0133223362278946e-03    8    4    7    5
-4.1226790146291154e-03    8    4    7    6
 1.3879328416983579e-03    8    4    7    7
 6.6249104134819973e-03    8    4    8    1
 3.2477856711855230e-03    8    4    8    2
 1.4219798972365521e-03    8    4    8    3
 1.7895752143928974e-02    8    4    8    4
 1.5849727233204355e-03    8    5    1    1
 4.3258338437717290e-03    8    5    2    1
 1.5126705322448138e-02    8    5    2    2
 4.1818861879134063e-03    8    5    3    1
 1.7796796183281998e-03    8    5    3    2
-2.4398037541681277e-02    8    5    3    3
 2.9873380829440891e-03    8    5    4    1
 1.0410960307902969e-02    8    5    4    2
 1.4662317832661977e-03    8    5    4    3
 1.2912576510689763e-02    8    5    4    4
-2.1585069348029761e-03    8    5    5    1
 4.8921223608983959e-03    8    5    5    2
 1.6730433047853301e-02    8    5    5    3
 3.7222490542429686e-03    8    5    5    4
 1.0520504335855055e-05    8    5    5    5
-3.3021755897579431e-03    8    5    6    1
 2.1875167898014690e-03    8    5    6    2
 1.4408269684590431e-02    8    5    6    3
 2.0133197909441309e-03    8    5    6    4
-5.4919337364340518e-03    8    5    6    5
 1.3879164343387810e-03    8    5    6    6
-4.8178001044547917e-03    8    5    7    1
-8.9800803693578079e-03    8    5    7    2
 2.0542756883987138e-03    8    5    7    3
-2.7677232511976566e-03    8    5    7    4
-4.7270197491688908e-03    8    5    7    5
-4.1226775587303571e-03    8    5    7    6
 1.1072238280647956e-02    8    5    7    7
 6.6249079865742062e-03    8    5    8    1
 3.2477806984746007e-03    8    5    8    2
 1.4219769377243098e-03    8    5    8    3
 3.1259417616705180e-03    8    5    8    4
 1.7895745213555088e-02    8    5    8    5
 2.7024706618378622e-02    8    6    1    1
 4.5777353452407044e-03    8    6    2    1
 2.3161186056243382e-02    8    6    2    2
 4.0369641357392398e-03    8    6    3    1
-2.1179836946551606e-03    8    6    3    2
-9.2537224353232018e-03    8    6    3    3
 3.3988669792550360e-03    8    6    4    1
 1.2012175204757964e-02    8    6    4    2
-1.6986657653986301e-03    8    6    4    3
 1.9646337959504635e-02    8    6    4    4
-4.0797951730110037e-03    8    6    5    1
 1.9754894161907802e-03    8    6    5    2
 1.8775125115204301e-02    8    6    5    3
 1.6055860359517908e-03    8    6    5    4
-9.3532459328762741e-03    8    6    5    5
-6.3645755501315132e-03    8    6    6    1
-8.2504119890074612e-04    8    6    6    2
 1.8550127578352414e-02    8    6    6    3
-2.9811545114280340e-04    8    6    6    4
 3.6828681633332173e-03    8    6    6    5
-4.3012134782946555e-03    8    6    6    6
-5.5363939530759330e-03    8    6    7    1
-1.0008439948168654e-02    8    6    7    2
 4.2128879293898136e-03    8    6    7    3
-8.5348262469932719e-03    8    6    7    4
-4.1333543048013895e-03    8    6    7    5
-2.1512483623469096e-03    8    6    7    6
 1.9628022081127138e-02    8    6    7    7
 6.3150675060198247e-03    8    6    8    1
 7.6451582712409850e-04    8    6    8    2
 3.5976913456277652e-03    8    6    8    3
 2.3453815279013120e-04    8    6    8    4
 1.8479228971181795e-02    8    6    8    5
 2.2635680691456859e-02    8    6    8    6
-2.7024728851371319e-02    8    7    1    1
-4.5777351057937369e-03    8    7    2    1
-2.3161194331940499e-02    8    7    2    2
-4.0369652868283215e-03    8    7    3    1
 2.1179821079629602e-03    8    7    3    2
 9.2537069738105812e-03    8    7    3    3
 4.0797940631296719e-03    8    7    4    1
-1.9754926742552052e-03    8    7    4    2
-1.8775124975549853e-02    8    7    4    3
 9.3532402098278952e-03    8    7    4    4
-3.3988665991445044e-03    8    7    5    1
-1.2012174961870488e-02    8    7    5    2
 1.6986642726529064e-03    8    7    5    3
-1.6055886480448648e-03    8    7    5    4
-1.9646343489300902e-02    8    7    5    5
-5.5363931072185523e-03    8    7    6    1
-1.0008439750356696e-02    8    7    6    2
 4.2128883485046025e-03    8    7    6    3
-4.1333542307972308e-03    8    7    6    4
-8.5348292453739753e-03    8    7    6    5
-1.9628028066574273e-02    8    7    6    6
-6.3645739385898162e-03    8    7    7    1
-8.2503893756708793e-04    8    7    7    2
 1.8550126681832570e-02    8    7    7    3
 3.6828843600759751e-03    8    7    7    4
-2.9811533161013535e-04    8    7    7    5
 2.1512483392594839e-03    8    7    7    6
 4.3012054948725819e-03    8    7    7    7
-6.3150692645530899e-03    8    7    8    1
-7.6451864720696700e-04    8    7    8    2
-3.5976794424128029e-03    8    7    8    3
-1.8479230483776591e-02    8    7    8    4
-2.3453690000150212e-04    8    7    8    5
 2.2262182450690027e-03    8    7    8    6
 2.2635681645253057e-02    8    7    8    7
 9.0227533964676809e-01    8    8    1    1
-1.2313201839189408e-02    8    8    2    1
 5.2691560058127274e-01    8    8    2    2
-1.0421968183554984e-02    8    8    3    1
-2.7945226459033752e-02    8    8    3    2
 7.3667131168808553e-01    8    8    3    3
-8.5303683964384099e-03    8    8    4    1
-8.7048786886238863e-03    8    8    4    2
-2.1674045274192023e-02    8    8    4    3
 4.8602270386009844e-01    8    8    4    4
-8.5303700795404495e-03    8    8    5    1
-8.7048832026417854e-03    8    8    5    2
-2.1674051473503448e-02    8    8    5    3
 7.6192281128645994e-04    8    8    5    4
 4.8602269400639686e-01    8    8    5    5
-1.3708595355434016e-02    8    8    6    1
-1.4335729615804201e-02    8    8    6    2
 1.0882664562482487e-03    8    8    6    3
-1.1162709230271945e-02    8    8    6    4
 1.4404303535638160e-01    8    8    6    5
 5.0274599297533107e-01    8    8    6    6
 1.3708593946806185e-02    8    8    7    1
 1.4335724763701371e-02    8    8    7    2
-1.0882499296269300e-03    8    8    7    3
-1.4404303265966578e-01    8    8    7    4
 1.1162710162222561e-02    8    8    7    5
 1.9618287664476097e-02    8    8    7    6
 5.0274600410141801e-01    8    8    7    7
-1.7213081939921510e-02    8    8    8    1
-2.5228764483588888e-02    8    8    8    2
 5.6436459922950787e-02    8    8    8    3
-2.2069154329520644e-02    8    8    8    4
-2.2069133421033931e-02    8    8    8    5
-4.2035571167708674e-03    8    8    8    6
 4.2035412140641101e-03    8    8    8    7
 7.7964499885630567e-01    8    8    8    8
 1.9341156197861487e-01    9    1    1    1
-3.5316651850637426e-02    9    1    2    1
-1.8750945901827555e-02    9    1    2    2
 3.7943913290219011e-03    9    1    3    1
 3.4722124079465473e-03    9    1    3    2
 1.3832276566451630e-02    9    1    3    3
-3.7358146323663187e-03    9    1    4    1
-3.4171236521667019e-03    9    1    4    2
-6.0727025363230521e-03    9    1    4    3
 1.3745167295655688e-02    9    1    4    4
-3.7358146259441330e-03    9    1    5    1
-3.4171233846417640e-03    9    1    5    2
-6.0727023657532238e-03    9    1    5    3